 Entering Gaussian System, Link 0=g98
 Input=cotton.h.com
 Output=cotton.h.log
 Initial command:
 /opt/pkgs/g98/l1.exe /usr/people/fparnold/work/cotton/Gau-5117.inp -scrdir=/usr/people/fparnold/work/cotton/
 Entering Link 1 = /opt/pkgs/g98/l1.exe PID=      5113.
  
 Copyright (c) 1988,1990,1992,1993,1995,1998 Gaussian, Inc.
                  All Rights Reserved.
  
 This is part of the Gaussian(R) 98 program.  It is based on
 the Gaussian 94(TM) system (copyright 1995 Gaussian, Inc.),
 the Gaussian 92(TM) system (copyright 1992 Gaussian, Inc.),
 the Gaussian 90(TM) system (copyright 1990 Gaussian, Inc.),
 the Gaussian 88(TM) system (copyright 1988 Gaussian, Inc.),
 the Gaussian 86(TM) system (copyright 1986 Carnegie Mellon
 University), and the Gaussian 82(TM) system (copyright 1983
 Carnegie Mellon University). Gaussian is a federally registered
 trademark of Gaussian, Inc.
  
 This software contains proprietary and confidential information,
 including trade secrets, belonging to Gaussian, Inc.
  
 This software is provided under written license and may be
 used, copied, transmitted, or stored only in accord with that
 written license.
  
 The following legend is applicable only to US Government
 contracts under DFARS:
  
                    RESTRICTED RIGHTS LEGEND
  
 Use, duplication or disclosure by the US Government is subject
 to restrictions as set forth in subparagraph (c)(1)(ii) of the
 Rights in Technical Data and Computer Software clause at DFARS
 252.227-7013.
  
 Gaussian, Inc.
 Carnegie Office Park, Building 6, Pittsburgh, PA 15106 USA
  
 The following legend is applicable only to US Government
 contracts under FAR:
  
                    RESTRICTED RIGHTS LEGEND
  
 Use, reproduction and disclosure by the US Government is subject
 to restrictions as set forth in subparagraph (c) of the
 Commercial Computer Software - Restricted Rights clause at FAR
 52.227-19.
  
 Gaussian, Inc.
 Carnegie Office Park, Building 6, Pittsburgh, PA 15106 USA
  
  
 ---------------------------------------------------------------
 Warning -- This program may not be used in any manner that
 competes with the business of Gaussian, Inc. or will provide
 assistance to any competitor of Gaussian, Inc.  The licensee
 of this program is prohibited from giving any competitor of
 Gaussian, Inc. access to this program.  By using this program,
 the user acknowledges that Gaussian, Inc. is engaged in the
 business of creating and licensing software in the field of
 computational chemistry and represents and warrants to the
 licensee that it is not a competitor of Gaussian, Inc. and that
 it will not use this program in any manner prohibited above.
 ---------------------------------------------------------------
  

 Cite this work as:
 Gaussian 98, Revision A.7,
 M. J. Frisch, G. W. Trucks, H. B. Schlegel, G. E. Scuseria, 
 M. A. Robb, J. R. Cheeseman, V. G. Zakrzewski, J. A. Montgomery, Jr., 
 R. E. Stratmann, J. C. Burant, S. Dapprich, J. M. Millam, 
 A. D. Daniels, K. N. Kudin, M. C. Strain, O. Farkas, J. Tomasi, 
 V. Barone, M. Cossi, R. Cammi, B. Mennucci, C. Pomelli, C. Adamo, 
 S. Clifford, J. Ochterski, G. A. Petersson, P. Y. Ayala, Q. Cui, 
 K. Morokuma, D. K. Malick, A. D. Rabuck, K. Raghavachari, 
 J. B. Foresman, J. Cioslowski, J. V. Ortiz, A. G. Baboul, 
 B. B. Stefanov, G. Liu, A. Liashenko, P. Piskorz, I. Komaromi, 
 R. Gomperts, R. L. Martin, D. J. Fox, T. Keith, M. A. Al-Laham, 
 C. Y. Peng, A. Nanayakkara, C. Gonzalez, M. Challacombe, 
 P. M. W. Gill, B. Johnson, W. Chen, M. W. Wong, J. L. Andres, 
 C. Gonzalez, M. Head-Gordon, E. S. Replogle, and J. A. Pople, 
 Gaussian, Inc., Pittsburgh PA, 1998.

 *****************************************
 Gaussian 98:  SGI64-G98RevA.7 11-Apr-1999
                17-Jan-2000 
 *****************************************
 %nproc=2
 Will use up to    2 processors via shared memory.
 %mem=128MB
 %chk=cotton.h.chk
 ----------------------------------------------------------------------
 #p ub3lyp/lanl2dz iop(6/7=3) gfinput density=current extrabasis #freq 
 pop=no scf=(maxcycle=200) guess=mix
 ----------------------------------------------------------------------
 1/10=4,30=1,38=1/1,3;
 2/17=6,18=5/2;
 3/5=6,6=3,10=1,11=2,16=1,24=10,25=1,30=1/1,2,3;
 4/7=2,9=2,11=1,13=1/1;
 5/5=2,7=200,38=4,42=-5/2;
 8/6=4,11=11/1;
 11/6=1,8=1,9=11,15=111,16=11/1,2,10;
 10/6=1/2;
 6/7=3,8=2,9=2,10=2,18=1,22=-1,28=1,31=1/1;
 7/8=1,10=1,25=1/1,2,3,16;
 1/10=4,30=1/3;
 99//99;
 (Enter /opt/pkgs/g98/l101.exe)
 ----------------
 Cr2(O2CR)4 R = H
 ----------------
 Symbolic Z-matrix:
 Charge =  0 Multiplicity = 1
 24                   0     0.        0.        0.87766 
 24                   0     0.        0.       -0.87757 
 8                    0     0.00002   1.97012  -1.11153 
 8                    0    -0.00002  -1.97012  -1.11153 
 8                    0    -1.97012   0.00002  -1.11153 
 8                    0     1.97012  -0.00002  -1.11153 
 8                    0    -0.00001  -1.97012   1.11149 
 8                    0     0.00001   1.97012   1.11149 
 8                    0     1.97012  -0.00001   1.11148 
 8                    0    -1.97012   0.00001   1.11148 
 6                    0     2.58656  -0.00001  -0.00003 
 6                    0    -2.58656   0.00001  -0.00003 
 6                    0     0.00001   2.58656  -0.00003 
 6                    0    -0.00001  -2.58656  -0.00003 
 1                    0     3.68433   0.       -0.00002 
 1                    0    -3.68433  0.        -0.00002 
 1                    0     0.        3.68433  -0.00002 
 1                    0     0.       -3.68433  -0.00002 
 (Enter /opt/pkgs/g98/l103.exe)

 GradGradGradGradGradGradGradGradGradGradGradGradGradGradGradGradGradGrad
 Berny optimization.
 Initialization pass.
 Trust Radius=3.00D-01 FncErr=1.00D-07 GrdErr=1.00D-07
 Number of steps in this run=  64 maximum allowed number of steps= 108.
 GradGradGradGradGradGradGradGradGradGradGradGradGradGradGradGradGradGrad

 (Enter /opt/pkgs/g98/l202.exe)
 ------------------------------------------------------------------------
                         Z-MATRIX (ANGSTROMS AND DEGREES)
 CD Cent Atom  N1     Length/X     N2    Alpha/Y     N3     Beta/Z      J
 ------------------------------------------------------------------------
   1   1  Cr    0   0.000000          0.000000          0.877662
   2   2  Cr    0   0.000000          0.000000         -0.877565
   3   3  O     0   0.000018          1.970125         -1.111532
   4   4  O     0  -0.000018         -1.970125         -1.111532
   5   5  O     0  -1.970125          0.000018         -1.111532
   6   6  O     0   1.970125         -0.000018         -1.111532
   7   7  O     0  -0.000008         -1.970118          1.111485
   8   8  O     0   0.000008          1.970118          1.111485
   9   9  O     0   1.970118         -0.000008          1.111484
  10  10  O     0  -1.970118          0.000008          1.111484
  11  11  C     0   2.586562         -0.000010         -0.000031
  12  12  C     0  -2.586562          0.000010         -0.000031
  13  13  C     0   0.000008          2.586562         -0.000030
  14  14  C     0  -0.000008         -2.586562         -0.000030
  15  15  H     0   3.684326          0.000001         -0.000022
  16  16  H     0  -3.684326         -0.000001         -0.000022
  17  17  H     0   0.000000          3.684326         -0.000021
  18  18  H     0   0.000000         -3.684326         -0.000021
 ------------------------------------------------------------------------
                         Z-Matrix orientation:                         
 ---------------------------------------------------------------------
 Center     Atomic     Atomic              Coordinates (Angstroms)
 Number     Number      Type              X           Y           Z
 ---------------------------------------------------------------------
    1         24             0        0.000000    0.000000    0.877662
    2         24             0        0.000000    0.000000   -0.877565
    3          8             0        0.000018    1.970125   -1.111532
    4          8             0       -0.000018   -1.970125   -1.111532
    5          8             0       -1.970125    0.000018   -1.111532
    6          8             0        1.970125   -0.000018   -1.111532
    7          8             0       -0.000008   -1.970118    1.111485
    8          8             0        0.000008    1.970118    1.111485
    9          8             0        1.970118   -0.000008    1.111484
   10          8             0       -1.970118    0.000008    1.111484
   11          6             0        2.586562   -0.000010   -0.000031
   12          6             0       -2.586562    0.000010   -0.000031
   13          6             0        0.000008    2.586562   -0.000030
   14          6             0       -0.000008   -2.586562   -0.000030
   15          1             0        3.684326    0.000001   -0.000022
   16          1             0       -3.684326   -0.000001   -0.000022
   17          1             0        0.000000    3.684326   -0.000021
   18          1             0        0.000000   -3.684326   -0.000021
 ---------------------------------------------------------------------
                    Distance matrix (angstroms):
                    1          2          3          4          5
     1  Cr   0.000000
     2  Cr   1.755227   0.000000
     3  O    2.799694   1.983969   0.000000
     4  O    2.799694   1.983969   3.940250   0.000000
     5  O    2.799694   1.983969   2.786177   2.786177   0.000000
     6  O    2.799694   1.983969   2.786177   2.786177   3.940250
     7  O    1.983945   2.799587   4.524082   2.223017   3.564351
     8  O    1.983945   2.799587   2.223017   4.524082   3.564340
     9  O    1.983945   2.799586   3.564340   3.564351   4.524082
    10  O    1.983945   2.799586   3.564351   3.564340   2.223016
    11  C    2.731419   2.731368   3.436143   3.436158   4.690291
    12  C    2.731419   2.731368   3.436158   3.436143   1.270995
    13  C    2.731418   2.731368   1.270996   4.690291   3.436142
    14  C    2.731418   2.731368   4.690291   1.270996   3.436160
    15  H    3.787425   3.787392   4.323305   4.323337   5.762662
    16  H    3.787425   3.787392   4.323337   4.323305   2.043022
    17  H    3.787425   3.787392   2.043023   5.762662   4.323306
    18  H    3.787425   3.787392   5.762662   2.043023   4.323337
                    6          7          8          9         10
     6  O    0.000000
     7  O    3.564340   0.000000
     8  O    3.564351   3.940236   0.000000
     9  O    2.223016   2.786168   2.786168   0.000000
    10  O    4.524082   2.786168   2.786168   3.940236   0.000000
    11  C    1.270995   3.436152   3.436151   1.271011   4.690288
    12  C    4.690291   3.436151   3.436152   4.690288   1.271011
    13  C    3.436160   4.690288   1.271011   3.436152   3.436149
    14  C    3.436142   1.271011   4.690288   3.436149   3.436152
    15  H    2.043022   4.323324   4.323310   2.043026   5.762654
    16  H    5.762662   4.323310   4.323324   5.762654   2.043026
    17  H    4.323337   5.762654   2.043026   4.323323   4.323310
    18  H    4.323306   2.043026   5.762654   4.323310   4.323323
                   11         12         13         14         15
    11  C    0.000000
    12  C    5.173124   0.000000
    13  C    3.657952   3.657950   0.000000
    14  C    3.657950   3.657952   5.173124   0.000000
    15  H    1.097764   6.270888   4.501610   4.501625   0.000000
    16  H    6.270888   1.097764   4.501625   4.501610   7.368652
    17  H    4.501626   4.501609   1.097764   6.270888   5.210423
    18  H    4.501609   4.501626   6.270888   1.097764   5.210425
                   16         17         18
    16  H    0.000000
    17  H    5.210425   0.000000
    18  H    5.210423   7.368652   0.000000
                           Interatomic angles:
     Cr1-Cr2-O3= 96.7726     Cr1-Cr2-O4= 96.7726      O3-Cr1-O4= 89.4481
      O3-Cr2-O4=166.4548     Cr1-Cr2-O5= 96.7726      Cr1-O3-O5= 60.1596
      O3-Cr2-O5= 89.2032      Cr1-O4-O5= 60.1596      O4-Cr2-O5= 89.2032
       O3-O5-O4= 90.         Cr1-Cr2-O6= 96.7726      Cr1-O3-O6= 60.1596
      O3-Cr2-O6= 89.2032      Cr1-O4-O6= 60.1596      O4-Cr2-O6= 89.2032
       O3-O6-O4= 90.          O5-Cr1-O6= 89.4481      O5-Cr2-O6=166.4548
       O5-O3-O6= 90.           O5-O4-O6= 90.         Cr2-Cr1-O7= 96.7685
      O3-Cr1-O7=141.4925      O3-Cr2-O7=141.4986      Cr1-O7-O4= 83.2317
      Cr2-O4-O7= 83.2272      O5-Cr1-O7= 94.8037      O5-Cr2-O7= 94.8064
       O5-O4-O7= 90.0001      O6-Cr1-O7= 94.8033      O6-Cr2-O7= 94.806 
       O6-O4-O7= 89.9997     Cr2-Cr1-O8= 96.7685      Cr1-O8-O3= 83.2317
      Cr2-O3-O8= 83.2272      O4-Cr1-O8=141.4925      O4-Cr2-O8=141.4986
      O5-Cr1-O8= 94.8033      O5-Cr2-O8= 94.806        O5-O3-O8= 89.9997
      O6-Cr1-O8= 94.8037      O6-Cr2-O8= 94.8064       O6-O3-O8= 90.0001
      O7-Cr1-O8=166.4631      O7-Cr2-O8= 89.452      Cr2-Cr1-O9= 96.7684
      O3-Cr1-O9= 94.8033      O3-Cr2-O9= 94.806       O4-Cr1-O9= 94.8037
      O4-Cr2-O9= 94.8064      O5-Cr1-O9=141.4925      O5-Cr2-O9=141.4986
      Cr1-O9-O6= 83.2317      Cr2-O6-O9= 83.2272       O3-O6-O9= 89.9997
       O4-O6-O9= 90.0001      O7-Cr1-O9= 89.2041      Cr2-O9-O7= 60.1584
       O4-O7-O9= 90.0003       O6-O9-O7= 90.          O8-Cr1-O9= 89.2041
      Cr2-O9-O8= 60.1584       O3-O8-O9= 89.9999       O6-O9-O8= 90.0003
       O7-O9-O8= 90.        Cr2-Cr1-O10= 96.7684     O3-Cr1-O10= 94.8037
     O3-Cr2-O10= 94.8064     O4-Cr1-O10= 94.8033     O4-Cr2-O10= 94.806 
     Cr1-O10-O5= 83.2317     Cr2-O5-O10= 83.2272      O3-O5-O10= 90.0001
      O4-O5-O10= 89.9997     O6-Cr1-O10=141.4925     O6-Cr2-O10=141.4986
     O7-Cr1-O10= 89.2041     Cr2-O10-O7= 60.1584      O4-O7-O10= 89.9999
      O5-O10-O7= 90.0003     O8-Cr1-O10= 89.2041     Cr2-O10-O8= 60.1584
      O3-O8-O10= 90.0003      O5-O10-O8= 90.          O7-O10-O8= 90.    
     O9-Cr1-O10=166.4631     O9-Cr2-O10= 89.4521      O9-O7-O10= 90.    
      O9-O8-O10= 90.        Cr1-Cr2-C11= 71.2596     O3-Cr1-C11= 76.8023
     O3-Cr2-C11= 92.1711     O4-Cr1-C11= 76.8027     O4-Cr2-C11= 92.1716
     O5-Cr1-C11=115.9805     O5-Cr2-C11=168.0322     Cr1-C11-O6= 79.7308
     Cr2-O6-C11=112.2401      O3-O6-C11=110.0562      O4-O6-C11=110.0571
     O7-Cr1-C11= 92.1704     O7-Cr2-C11= 76.8052     O8-Cr1-C11= 92.1704
     O8-Cr2-C11= 76.8052     Cr1-O9-C11=112.2442     Cr2-C11-O9= 79.7277
      O6-C11-O9=121.9746      O7-O9-C11=110.0567      O8-O9-C11=110.0566
    O10-Cr1-C11=168.0249    O10-Cr2-C11=115.9857    Cr1-Cr2-C12= 71.2596
     O3-Cr1-C12= 76.8027     O3-Cr2-C12= 92.1716     O4-Cr1-C12= 76.8023
     O4-Cr2-C12= 92.1711     Cr1-C12-O5= 79.7308     Cr2-O5-C12=112.2401
      O3-O5-C12=110.0571      O4-O5-C12=110.0562     O6-Cr1-C12=115.9805
     O6-Cr2-C12=168.0322     O7-Cr1-C12= 92.1704     O7-Cr2-C12= 76.8052
     O8-Cr1-C12= 92.1704     O8-Cr2-C12= 76.8052     O9-Cr1-C12=168.0249
     O9-Cr2-C12=115.9857    Cr1-O10-C12=112.2442    Cr2-C12-O10= 79.7277
     O5-C12-O10=121.9746     O7-O10-C12=110.0566     O8-O10-C12=110.0567
    C11-Cr1-C12=142.513     C11-Cr2-C12=142.5193    Cr1-Cr2-C13= 71.2596
     Cr1-C13-O3= 79.7308     Cr2-O3-C13=112.2401     O4-Cr1-C13=115.9806
     O4-Cr2-C13=168.0322     O5-Cr1-C13= 76.8023     O5-Cr2-C13= 92.171 
      O5-O3-C13=110.0561     O6-Cr1-C13= 76.8028     O6-Cr2-C13= 92.1717
      O6-O3-C13=110.0572     O7-Cr1-C13=168.025      O7-Cr2-C13=115.9856
     Cr1-O8-C13=112.2442     Cr2-C13-O8= 79.7277      O3-C13-O8=121.9747
     O9-Cr1-C13= 92.1704     O9-Cr2-C13= 76.8052      O9-O8-C13=110.0567
    O10-Cr1-C13= 92.1703    O10-Cr2-C13= 76.8051     O10-O8-C13=110.0565
    C11-Cr1-C13= 84.0734    C11-Cr2-C13= 84.0754    C12-Cr1-C13= 84.0734
    C12-Cr2-C13= 84.0753    Cr1-Cr2-C14= 71.2596     O3-Cr1-C14=115.9806
     O3-Cr2-C14=168.0322     Cr1-C14-O4= 79.7308     Cr2-O4-C14=112.2401
     O5-Cr1-C14= 76.8028     O5-Cr2-C14= 92.1717      O5-O4-C14=110.0572
     O6-Cr1-C14= 76.8023     O6-Cr2-C14= 92.171       O6-O4-C14=110.0561
     Cr1-O7-C14=112.2442     Cr2-C14-O7= 79.7277      O4-C14-O7=121.9747
     O8-Cr1-C14=168.025      O8-Cr2-C14=115.9856     O9-Cr1-C14= 92.1703
     O9-Cr2-C14= 76.8051      O9-O7-C14=110.0565    O10-Cr1-C14= 92.1704
    O10-Cr2-C14= 76.8052     O10-O7-C14=110.0567    C11-Cr1-C14= 84.0734
    C11-Cr2-C14= 84.0753    C12-Cr1-C14= 84.0734    C12-Cr2-C14= 84.0754
    C13-Cr1-C14=142.513     C13-Cr2-C14=142.5192     Cr1-O6-H15=101.7642
     Cr2-O6-H15=140.2675      O3-O6-H15=126.3906      O4-O6-H15=126.3923
     Cr1-O9-H15=140.2719     Cr2-O9-H15=101.7663      O6-H15-O9= 65.9196
      O7-O9-H15=126.392       O8-O9-H15=126.3912    Cr1-C11-H15=161.256 
    Cr2-C11-H15=161.2601     O6-C11-H15=119.0132     O9-C11-H15=119.0122
     Cr1-O5-H16=101.7642     Cr2-O5-H16=140.2675      O3-O5-H16=126.3923
      O4-O5-H16=126.3906    Cr1-O10-H16=140.2719    Cr2-O10-H16=101.7663
     O5-H16-O10= 65.9196     O7-O10-H16=126.3912     O8-O10-H16=126.392 
    Cr1-C12-H16=161.256     Cr2-C12-H16=161.2601     O5-C12-H16=119.0132
    O10-C12-H16=119.0122     Cr1-O3-H17=101.7641     Cr2-O3-H17=140.2675
      O5-O3-H17=126.3906      O6-O3-H17=126.3923     Cr1-O8-H17=140.2718
     Cr2-O8-H17=101.7663      O3-H17-O8= 65.9196      O9-O8-H17=126.3919
     O10-O8-H17=126.3912    Cr1-C13-H17=161.256     Cr2-C13-H17=161.2601
     O3-C13-H17=119.0131     O8-C13-H17=119.0122     Cr1-O4-H18=101.7641
     Cr2-O4-H18=140.2675      O5-O4-H18=126.3923      O6-O4-H18=126.3906
     Cr1-O7-H18=140.2718     Cr2-O7-H18=101.7663      O4-H18-O7= 65.9196
      O9-O7-H18=126.3912     O10-O7-H18=126.3919    Cr1-C14-H18=161.256 
    Cr2-C14-H18=161.2601     O4-C14-H18=119.0131     O7-C14-H18=119.0122
 Stoichiometry    C4H4Cr2O8
 Framework group  C2[C2(CrCr),X(C4H4O8)]
 Deg. of freedom   24
 Full point group                 C2      NOp   2
 Largest Abelian subgroup         C2      NOp   2
 Largest concise Abelian subgroup C2      NOp   2
                         Standard orientation:                         
 ---------------------------------------------------------------------
 Center     Atomic     Atomic              Coordinates (Angstroms)
 Number     Number      Type              X           Y           Z
 ---------------------------------------------------------------------
    1         24             0        0.000000    0.000000    0.877662
    2         24             0        0.000000    0.000000   -0.877565
    3          8             0        0.000018    1.970125   -1.111532
    4          8             0       -0.000018   -1.970125   -1.111532
    5          8             0       -1.970125    0.000018   -1.111532
    6          8             0        1.970125   -0.000018   -1.111532
    7          8             0       -0.000008   -1.970118    1.111485
    8          8             0        0.000008    1.970118    1.111485
    9          8             0        1.970118   -0.000008    1.111484
   10          8             0       -1.970118    0.000008    1.111484
   11          6             0        2.586562   -0.000010   -0.000031
   12          6             0       -2.586562    0.000010   -0.000031
   13          6             0        0.000008    2.586562   -0.000030
   14          6             0       -0.000008   -2.586562   -0.000030
   15          1             0        3.684326    0.000000   -0.000022
   16          1             0       -3.684326    0.000000   -0.000022
   17          1             0        0.000000    3.684326   -0.000021
   18          1             0        0.000000   -3.684326   -0.000021
 ---------------------------------------------------------------------
 Rotational constants (GHZ):      0.7494264      0.7494261      0.5792211
 Isotopes: Cr-52,Cr-52,O-16,O-16,O-16,O-16,O-16,O-16,O-16,O-16,C-12,C-12,C-12,C-1
 2,H-1,H-1,H-1,H-1
 (Enter /opt/pkgs/g98/l301.exe)
 Standard basis: LANL2DZ (5D, 7F)
 Centers:  11 12 13 14
 D 1
     Exponent=       0.800000000 Coefficients=    1.000000000
 ****
 Centers:   3  4  5  6  7  8  9 10
 D 1
     Exponent=       0.800000000 Coefficients=    1.000000000
 ****
 Basis set in the form of general basis input:
  1 0
 S    3 1.00
  0.5361000000D+01 -0.3805689000D+00
  0.1449000000D+01  0.7795625000D+00
  0.5496000000D+00  0.4730777000D+00
 S    4 1.00
  0.5361000000D+01  0.2203111000D+00
  0.1449000000D+01 -0.5423391000D+00
  0.5496000000D+00 -0.6047716000D+00
  0.1052000000D+00  0.1113666000D+01
 S    1 1.00
  0.3640000000D-01  0.1000000000D+01
 P    3 1.00
  0.1642000000D+02 -0.4613970000D-01
  0.1914000000D+01  0.6109965000D+00
  0.6241000000D+00  0.4859635000D+00
 P    1 1.00
  0.6300000000D-01  0.1000000000D+01
 P    1 1.00
  0.1900000000D-01  0.1000000000D+01
 D    4 1.00
  0.2895000000D+02  0.3377870000D-01
  0.7708000000D+01  0.1780345000D+00
  0.2495000000D+01  0.4370008000D+00
  0.7655000000D+00  0.5941795000D+00
 D    1 1.00
  0.1889000000D+00  0.1000000000D+01
 ****
  2 0
 S    3 1.00
  0.5361000000D+01 -0.3805689000D+00
  0.1449000000D+01  0.7795625000D+00
  0.5496000000D+00  0.4730777000D+00
 S    4 1.00
  0.5361000000D+01  0.2203111000D+00
  0.1449000000D+01 -0.5423391000D+00
  0.5496000000D+00 -0.6047716000D+00
  0.1052000000D+00  0.1113666000D+01
 S    1 1.00
  0.3640000000D-01  0.1000000000D+01
 P    3 1.00
  0.1642000000D+02 -0.4613970000D-01
  0.1914000000D+01  0.6109965000D+00
  0.6241000000D+00  0.4859635000D+00
 P    1 1.00
  0.6300000000D-01  0.1000000000D+01
 P    1 1.00
  0.1900000000D-01  0.1000000000D+01
 D    4 1.00
  0.2895000000D+02  0.3377870000D-01
  0.7708000000D+01  0.1780345000D+00
  0.2495000000D+01  0.4370008000D+00
  0.7655000000D+00  0.5941795000D+00
 D    1 1.00
  0.1889000000D+00  0.1000000000D+01
 ****
  3 0
 S    7 1.00
  0.7817000000D+04  0.1176000000D-02
  0.1176000000D+04  0.8968000000D-02
  0.2732000000D+03  0.4286800000D-01
  0.8117000000D+02  0.1439300000D+00
  0.2718000000D+02  0.3556300000D+00
  0.9532000000D+01  0.4612480000D+00
  0.3414000000D+01  0.1402060000D+00
 S    2 1.00
  0.9532000000D+01 -0.1541530000D+00
  0.9398000000D+00  0.1056914000D+01
 S    1 1.00
  0.2846000000D+00  0.1000000000D+01
 P    4 1.00
  0.3518000000D+02  0.1958000000D-01
  0.7904000000D+01  0.1242000000D+00
  0.2305000000D+01  0.3947140000D+00
  0.7171000000D+00  0.6273760000D+00
 P    1 1.00
  0.2137000000D+00  0.1000000000D+01
 D    1 1.00
  0.8000000000D+00  0.1000000000D+01
 ****
  4 0
 S    7 1.00
  0.7817000000D+04  0.1176000000D-02
  0.1176000000D+04  0.8968000000D-02
  0.2732000000D+03  0.4286800000D-01
  0.8117000000D+02  0.1439300000D+00
  0.2718000000D+02  0.3556300000D+00
  0.9532000000D+01  0.4612480000D+00
  0.3414000000D+01  0.1402060000D+00
 S    2 1.00
  0.9532000000D+01 -0.1541530000D+00
  0.9398000000D+00  0.1056914000D+01
 S    1 1.00
  0.2846000000D+00  0.1000000000D+01
 P    4 1.00
  0.3518000000D+02  0.1958000000D-01
  0.7904000000D+01  0.1242000000D+00
  0.2305000000D+01  0.3947140000D+00
  0.7171000000D+00  0.6273760000D+00
 P    1 1.00
  0.2137000000D+00  0.1000000000D+01
 D    1 1.00
  0.8000000000D+00  0.1000000000D+01
 ****
  5 0
 S    7 1.00
  0.7817000000D+04  0.1176000000D-02
  0.1176000000D+04  0.8968000000D-02
  0.2732000000D+03  0.4286800000D-01
  0.8117000000D+02  0.1439300000D+00
  0.2718000000D+02  0.3556300000D+00
  0.9532000000D+01  0.4612480000D+00
  0.3414000000D+01  0.1402060000D+00
 S    2 1.00
  0.9532000000D+01 -0.1541530000D+00
  0.9398000000D+00  0.1056914000D+01
 S    1 1.00
  0.2846000000D+00  0.1000000000D+01
 P    4 1.00
  0.3518000000D+02  0.1958000000D-01
  0.7904000000D+01  0.1242000000D+00
  0.2305000000D+01  0.3947140000D+00
  0.7171000000D+00  0.6273760000D+00
 P    1 1.00
  0.2137000000D+00  0.1000000000D+01
 D    1 1.00
  0.8000000000D+00  0.1000000000D+01
 ****
  6 0
 S    7 1.00
  0.7817000000D+04  0.1176000000D-02
  0.1176000000D+04  0.8968000000D-02
  0.2732000000D+03  0.4286800000D-01
  0.8117000000D+02  0.1439300000D+00
  0.2718000000D+02  0.3556300000D+00
  0.9532000000D+01  0.4612480000D+00
  0.3414000000D+01  0.1402060000D+00
 S    2 1.00
  0.9532000000D+01 -0.1541530000D+00
  0.9398000000D+00  0.1056914000D+01
 S    1 1.00
  0.2846000000D+00  0.1000000000D+01
 P    4 1.00
  0.3518000000D+02  0.1958000000D-01
  0.7904000000D+01  0.1242000000D+00
  0.2305000000D+01  0.3947140000D+00
  0.7171000000D+00  0.6273760000D+00
 P    1 1.00
  0.2137000000D+00  0.1000000000D+01
 D    1 1.00
  0.8000000000D+00  0.1000000000D+01
 ****
  7 0
 S    7 1.00
  0.7817000000D+04  0.1176000000D-02
  0.1176000000D+04  0.8968000000D-02
  0.2732000000D+03  0.4286800000D-01
  0.8117000000D+02  0.1439300000D+00
  0.2718000000D+02  0.3556300000D+00
  0.9532000000D+01  0.4612480000D+00
  0.3414000000D+01  0.1402060000D+00
 S    2 1.00
  0.9532000000D+01 -0.1541530000D+00
  0.9398000000D+00  0.1056914000D+01
 S    1 1.00
  0.2846000000D+00  0.1000000000D+01
 P    4 1.00
  0.3518000000D+02  0.1958000000D-01
  0.7904000000D+01  0.1242000000D+00
  0.2305000000D+01  0.3947140000D+00
  0.7171000000D+00  0.6273760000D+00
 P    1 1.00
  0.2137000000D+00  0.1000000000D+01
 D    1 1.00
  0.8000000000D+00  0.1000000000D+01
 ****
  8 0
 S    7 1.00
  0.7817000000D+04  0.1176000000D-02
  0.1176000000D+04  0.8968000000D-02
  0.2732000000D+03  0.4286800000D-01
  0.8117000000D+02  0.1439300000D+00
  0.2718000000D+02  0.3556300000D+00
  0.9532000000D+01  0.4612480000D+00
  0.3414000000D+01  0.1402060000D+00
 S    2 1.00
  0.9532000000D+01 -0.1541530000D+00
  0.9398000000D+00  0.1056914000D+01
 S    1 1.00
  0.2846000000D+00  0.1000000000D+01
 P    4 1.00
  0.3518000000D+02  0.1958000000D-01
  0.7904000000D+01  0.1242000000D+00
  0.2305000000D+01  0.3947140000D+00
  0.7171000000D+00  0.6273760000D+00
 P    1 1.00
  0.2137000000D+00  0.1000000000D+01
 D    1 1.00
  0.8000000000D+00  0.1000000000D+01
 ****
  9 0
 S    7 1.00
  0.7817000000D+04  0.1176000000D-02
  0.1176000000D+04  0.8968000000D-02
  0.2732000000D+03  0.4286800000D-01
  0.8117000000D+02  0.1439300000D+00
  0.2718000000D+02  0.3556300000D+00
  0.9532000000D+01  0.4612480000D+00
  0.3414000000D+01  0.1402060000D+00
 S    2 1.00
  0.9532000000D+01 -0.1541530000D+00
  0.9398000000D+00  0.1056914000D+01
 S    1 1.00
  0.2846000000D+00  0.1000000000D+01
 P    4 1.00
  0.3518000000D+02  0.1958000000D-01
  0.7904000000D+01  0.1242000000D+00
  0.2305000000D+01  0.3947140000D+00
  0.7171000000D+00  0.6273760000D+00
 P    1 1.00
  0.2137000000D+00  0.1000000000D+01
 D    1 1.00
  0.8000000000D+00  0.1000000000D+01
 ****
 10 0
 S    7 1.00
  0.7817000000D+04  0.1176000000D-02
  0.1176000000D+04  0.8968000000D-02
  0.2732000000D+03  0.4286800000D-01
  0.8117000000D+02  0.1439300000D+00
  0.2718000000D+02  0.3556300000D+00
  0.9532000000D+01  0.4612480000D+00
  0.3414000000D+01  0.1402060000D+00
 S    2 1.00
  0.9532000000D+01 -0.1541530000D+00
  0.9398000000D+00  0.1056914000D+01
 S    1 1.00
  0.2846000000D+00  0.1000000000D+01
 P    4 1.00
  0.3518000000D+02  0.1958000000D-01
  0.7904000000D+01  0.1242000000D+00
  0.2305000000D+01  0.3947140000D+00
  0.7171000000D+00  0.6273760000D+00
 P    1 1.00
  0.2137000000D+00  0.1000000000D+01
 D    1 1.00
  0.8000000000D+00  0.1000000000D+01
 ****
 11 0
 S    7 1.00
  0.4233000000D+04  0.1220000000D-02
  0.6349000000D+03  0.9342000000D-02
  0.1461000000D+03  0.4545200000D-01
  0.4250000000D+02  0.1546570000D+00
  0.1419000000D+02  0.3588660000D+00
  0.5148000000D+01  0.4386320000D+00
  0.1967000000D+01  0.1459180000D+00
 S    2 1.00
  0.5148000000D+01 -0.1683670000D+00
  0.4962000000D+00  0.1060091000D+01
 S    1 1.00
  0.1533000000D+00  0.1000000000D+01
 P    4 1.00
  0.1816000000D+02  0.1853900000D-01
  0.3986000000D+01  0.1154360000D+00
  0.1143000000D+01  0.3861880000D+00
  0.3594000000D+00  0.6401140000D+00
 P    1 1.00
  0.1146000000D+00  0.1000000000D+01
 D    1 1.00
  0.8000000000D+00  0.1000000000D+01
 ****
 12 0
 S    7 1.00
  0.4233000000D+04  0.1220000000D-02
  0.6349000000D+03  0.9342000000D-02
  0.1461000000D+03  0.4545200000D-01
  0.4250000000D+02  0.1546570000D+00
  0.1419000000D+02  0.3588660000D+00
  0.5148000000D+01  0.4386320000D+00
  0.1967000000D+01  0.1459180000D+00
 S    2 1.00
  0.5148000000D+01 -0.1683670000D+00
  0.4962000000D+00  0.1060091000D+01
 S    1 1.00
  0.1533000000D+00  0.1000000000D+01
 P    4 1.00
  0.1816000000D+02  0.1853900000D-01
  0.3986000000D+01  0.1154360000D+00
  0.1143000000D+01  0.3861880000D+00
  0.3594000000D+00  0.6401140000D+00
 P    1 1.00
  0.1146000000D+00  0.1000000000D+01
 D    1 1.00
  0.8000000000D+00  0.1000000000D+01
 ****
 13 0
 S    7 1.00
  0.4233000000D+04  0.1220000000D-02
  0.6349000000D+03  0.9342000000D-02
  0.1461000000D+03  0.4545200000D-01
  0.4250000000D+02  0.1546570000D+00
  0.1419000000D+02  0.3588660000D+00
  0.5148000000D+01  0.4386320000D+00
  0.1967000000D+01  0.1459180000D+00
 S    2 1.00
  0.5148000000D+01 -0.1683670000D+00
  0.4962000000D+00  0.1060091000D+01
 S    1 1.00
  0.1533000000D+00  0.1000000000D+01
 P    4 1.00
  0.1816000000D+02  0.1853900000D-01
  0.3986000000D+01  0.1154360000D+00
  0.1143000000D+01  0.3861880000D+00
  0.3594000000D+00  0.6401140000D+00
 P    1 1.00
  0.1146000000D+00  0.1000000000D+01
 D    1 1.00
  0.8000000000D+00  0.1000000000D+01
 ****
 14 0
 S    7 1.00
  0.4233000000D+04  0.1220000000D-02
  0.6349000000D+03  0.9342000000D-02
  0.1461000000D+03  0.4545200000D-01
  0.4250000000D+02  0.1546570000D+00
  0.1419000000D+02  0.3588660000D+00
  0.5148000000D+01  0.4386320000D+00
  0.1967000000D+01  0.1459180000D+00
 S    2 1.00
  0.5148000000D+01 -0.1683670000D+00
  0.4962000000D+00  0.1060091000D+01
 S    1 1.00
  0.1533000000D+00  0.1000000000D+01
 P    4 1.00
  0.1816000000D+02  0.1853900000D-01
  0.3986000000D+01  0.1154360000D+00
  0.1143000000D+01  0.3861880000D+00
  0.3594000000D+00  0.6401140000D+00
 P    1 1.00
  0.1146000000D+00  0.1000000000D+01
 D    1 1.00
  0.8000000000D+00  0.1000000000D+01
 ****
 15 0
 S    3 1.00
  0.1924060000D+02  0.3282800000D-01
  0.2899200000D+01  0.2312080000D+00
  0.6534000000D+00  0.8172380000D+00
 S    1 1.00
  0.1776000000D+00  0.1000000000D+01
 ****
 16 0
 S    3 1.00
  0.1924060000D+02  0.3282800000D-01
  0.2899200000D+01  0.2312080000D+00
  0.6534000000D+00  0.8172380000D+00
 S    1 1.00
  0.1776000000D+00  0.1000000000D+01
 ****
 17 0
 S    3 1.00
  0.1924060000D+02  0.3282800000D-01
  0.2899200000D+01  0.2312080000D+00
  0.6534000000D+00  0.8172380000D+00
 S    1 1.00
  0.1776000000D+00  0.1000000000D+01
 ****
 18 0
 S    3 1.00
  0.1924060000D+02  0.3282800000D-01
  0.2899200000D+01  0.2312080000D+00
  0.6534000000D+00  0.8172380000D+00
 S    1 1.00
  0.1776000000D+00  0.1000000000D+01
 ****

 There are   112 symmetry adapted basis functions of A   symmetry.
 There are   108 symmetry adapted basis functions of B   symmetry.
 Crude estimate of integral set expansion from redundant integrals=1.002.
 Integral buffers will be    131072 words long.
 Raffenetti 2 integral format.
 Two-electron integral symmetry is turned on.
   220 basis functions      494 primitive gaussians
    60 alpha electrons       60 beta electrons
       nuclear repulsion energy      1319.3823745683 Hartrees.
 (Enter /opt/pkgs/g98/l302.exe)
 One-electron integrals computed using PRISM.
 One-electron integral symmetry used in STVInt
   2 Symmetry operations used in ECPInt.
 ECPInt:  NShTT=    4656 NPrTT=   30274 LenC2=    4573 LenP2D=   20054.
 LDataN:  DoStor=F MaxTD1= 4 Len=   56
 LDataN:  DoStor=T MaxTD1= 4 Len=   56
 NBasis=   220 RedAO= T  NBF=   112   108
 NBsUse=   220 1.00D-04 NBFU=   112   108
 (Enter /opt/pkgs/g98/l303.exe)
 DipDrv:  MaxL=1.
 (Enter /opt/pkgs/g98/l401.exe)
 SCF N**3 symmetry information disabled.
 Projected Huckel Guess.
 Initial guess orbital symmetries:
   Alpha Orbitals:
       Occupied  (A) (A) (B) (B) (A) (A) (B) (B) (B) (B) (B) (B)
                 (A) (A) (A) (A) (B) (B) (A) (A) (B) (B) (A) (A)
                 (A) (B) (B) (A) (A) (B) (B) (A) (A) (B) (B) (A)
                 (A) (A) (A) (B) (B) (A) (B) (B) (A) (A) (B) (B)
                 (A) (A) (B) (B) (A) (A) (A) (B) (B) (A) (B) (?A)
       Virtual   (?A) (A) (A) (B) (B) (A) (A) (B) (B) (A) (A) (A)
                 (A) (B) (B) (A) (A) (B) (B) (B) (B) (A) (A) (B)
                 (B) (A) (A) (B) (B) (A) (A) (A) (A) (A) (A) (A)
                 (A) (A) (A) (A) (A) (A) (A) (A) (A) (A) (A) (A)
                 (A) (A) (A) (A) (A) (A) (A) (A) (A) (A) (A) (A)
                 (A) (A) (A) (A) (A) (A) (A) (A) (A) (A) (A) (A)
                 (A) (A) (A) (A) (A) (A) (A) (A) (A) (A) (A) (A)
                 (A) (A) (A) (A) (A) (A) (A) (A) (A) (A) (A) (A)
                 (B) (B) (B) (B) (B) (B) (B) (B) (B) (B) (B) (B)
                 (B) (B) (B) (B) (B) (B) (B) (B) (B) (B) (B) (B)
                 (B) (B) (B) (B) (B) (B) (B) (B) (B) (B) (B) (B)
                 (B) (B) (B) (B) (B) (B) (B) (B) (B) (B) (B) (B)
                 (B) (B) (B) (B) (B) (B) (B) (B) (B) (B) (B) (B)
                 (B) (B) (B) (B)
   Beta Orbitals:
       Occupied  (A) (A) (B) (B) (A) (A) (B) (B) (B) (B) (B) (B)
                 (A) (A) (A) (A) (B) (B) (A) (A) (B) (B) (A) (A)
                 (A) (B) (B) (A) (A) (B) (B) (A) (A) (B) (B) (A)
                 (A) (A) (A) (B) (B) (A) (B) (B) (A) (A) (B) (B)
                 (A) (A) (B) (B) (A) (A) (A) (B) (B) (A) (B) (?A)
       Virtual   (?A) (A) (A) (B) (B) (A) (A) (B) (B) (A) (A) (A)
                 (A) (B) (B) (A) (A) (B) (B) (B) (B) (A) (A) (B)
                 (B) (A) (A) (B) (B) (A) (A) (A) (A) (A) (A) (A)
                 (A) (A) (A) (A) (A) (A) (A) (A) (A) (A) (A) (A)
                 (A) (A) (A) (A) (A) (A) (A) (A) (A) (A) (A) (A)
                 (A) (A) (A) (A) (A) (A) (A) (A) (A) (A) (A) (A)
                 (A) (A) (A) (A) (A) (A) (A) (A) (A) (A) (A) (A)
                 (A) (A) (A) (A) (A) (A) (A) (A) (A) (A) (A) (A)
                 (B) (B) (B) (B) (B) (B) (B) (B) (B) (B) (B) (B)
                 (B) (B) (B) (B) (B) (B) (B) (B) (B) (B) (B) (B)
                 (B) (B) (B) (B) (B) (B) (B) (B) (B) (B) (B) (B)
                 (B) (B) (B) (B) (B) (B) (B) (B) (B) (B) (B) (B)
                 (B) (B) (B) (B) (B) (B) (B) (B) (B) (B) (B) (B)
                 (B) (B) (B) (B)
 <S**2> of initial guess= 1.0000
 (Enter /opt/pkgs/g98/l502.exe)
 IExCor= 402 DFT=T Ex=B+HF Corr=LYP ScaHFX= 0.2000
 ScaDFX=  0.8000  0.7200  1.0000  0.8100
 IRadAn=      0 IRanWt=     -1 IRanGd=            0 ICorTp=0
 Using DIIS extrapolation.
 UHF open shell SCF:
 Requested convergence on RMS density matrix=1.00D-08 within 200 cycles.
 Requested convergence on MAX density matrix=1.00D-06.
 Virtual orbitals will be shifted by   0.200 hartree.
 Integral symmetry usage will be decided dynamically.
 IEnd=    238190 IEndB=    238190 NGot=  16777216 MDV=  16635359
 LenX=  16635359
 Fock matrices will be formed incrementally for  20 cycles.

 Density matrix breaks symmetry, PCut= 1.00D-04
 Density matrix has no symmetry -- integrals replicated.
 Cycle   1  Pass 1  IDiag 1:
 Integrals replicated using symmetry in FoFDir.
 MinBra= 0 MaxBra= 2 Meth= 1.
 IRaf=       0 NMat=   1 IRICut=       1 DoRegI=T DoRafI=F ISym2E= 2 JSym2E=2.
 E=-0.219874406772567D+04
 DIIS: error= 2.84D+00 at cycle   1.
 T= 3000. Gap= 0.010 NK=0 IS=    1 IE=  220
          NO(<0.9)=   2  NV(>0.1)=   2  59.32e < EF 0.68e >EF  Err=1.8D-12
 T= 3000. Gap= 0.010 NK=0 IS=    1 IE=  220
          NO(<0.9)=   2  NV(>0.1)=   2  59.32e < EF 0.68e >EF  Err=5.3D-11
 RMSDP=3.34D-01 MaxDP=2.11D+01

 Density matrix breaks symmetry, PCut= 1.00D-04
 Density matrix has no symmetry -- integrals replicated.
 Cycle   2  Pass 1  IDiag 1:
 RMSU=  3.02D-01    CP:  3.90D-01
 E=-0.203593868040982D+04 Delta-E=      162.805387315852
 DIIS: error= 9.31D-01 at cycle   2.
 Coeff:-0.263D+00-0.737D+00
 T= 2700. Gap= 0.007 NK=0 IS=    1 IE=  220
          NO(<0.9)=   1  NV(>0.1)=   1  59.60e < EF 0.40e >EF  Err=8.7D-11
 T= 2700. Gap= 0.007 NK=0 IS=    1 IE=  220
          NO(<0.9)=   1  NV(>0.1)=   1  59.60e < EF 0.40e >EF  Err=9.8D-11
 RMSDP=2.55D-01 MaxDP=1.44D+01

 Density matrix breaks symmetry, PCut= 1.00D-04
 Density matrix has no symmetry -- integrals replicated.
 Cycle   3  Pass 1  IDiag 1:
 RMSU=  1.64D-01    CP:  4.83D-01  3.57D-01
 E=-0.209987617621808D+04 Delta-E=      -63.937495808264
 DIIS: error= 1.12D+00 at cycle   3.
 Coeff:-0.768D-01-0.450D+00-0.474D+00
 T= 2400. Gap= 0.033 NK=0 IS=    1 IE=  220
          NO(<0.9)=   0  NV(>0.1)=   1  59.85e < EF 0.15e >EF  Err=5.7D-12
 T= 2400. Gap= 0.033 NK=0 IS=    1 IE=  220
          NO(<0.9)=   0  NV(>0.1)=   1  59.85e < EF 0.15e >EF  Err=1.2D-11
 RMSDP=2.23D-01 MaxDP=1.48D+01

 Density matrix breaks symmetry, PCut= 1.00D-04
 Density matrix has no symmetry -- integrals replicated.
 Cycle   4  Pass 1  IDiag 1:
 RMSU=  3.20D-02    CP:  2.27D-02  9.01D-03  2.16D-02
 E=-0.220695766053499D+04 Delta-E=     -107.081484316910
 DIIS: error= 8.92D-01 at cycle   4.
 Coeff:-0.932D-02-0.290D+00-0.225D+00-0.475D+00
 T= 2400. Gap= 0.014 NK=2 IS=   53 IE=   64
          NO(<0.9)=   2  NV(>0.1)=   2  59.44e < EF 0.56e >EF  Err=7.1D-15
 T= 2400. Gap= 0.014 NK=2 IS=   53 IE=   64
          NO(<0.9)=   2  NV(>0.1)=   2  59.44e < EF 0.56e >EF  Err=7.1D-15
 RMSDP=3.18D-02 MaxDP=1.86D+00

 Density matrix breaks symmetry, PCut= 1.00D-04
 Density matrix has no symmetry -- integrals replicated.
 Cycle   5  Pass 1  IDiag 1:
 RMSU=  3.00D-02    CP:  2.41D-02  1.52D-02  6.88D-03  6.81D-01
 E=-0.222632888671424D+04 Delta-E=      -19.371226179247
 DIIS: error= 3.76D-01 at cycle   5.
 Coeff:-0.351D-02-0.896D-01-0.120D+00-0.270D+00-0.516D+00
 T= 1800. Gap= 0.034 NK=0 IS=    1 IE=  220
          NO(<0.9)=   0  NV(>0.1)=   0  59.95e < EF 0.05e >EF  Err=3.5D-11
 T= 1800. Gap= 0.034 NK=0 IS=    1 IE=  220
          NO(<0.9)=   0  NV(>0.1)=   0  59.95e < EF 0.05e >EF  Err=2.8D-11
 RMSDP=3.00D-02 MaxDP=1.85D+00

 Density matrix breaks symmetry, PCut= 1.00D-04
 Density matrix has no symmetry -- integrals replicated.
 Cycle   6  Pass 1  IDiag 1:
 RMSU=  1.26D-02    CP:  1.86D-02  5.33D-03  1.27D-02  8.13D-01  1.10D-01
 E=-0.222555291564031D+04 Delta-E=        0.775971073927
 DIIS: error= 8.54D-01 at cycle   6.
 Coeff: 0.563D-03-0.519D-01-0.939D-01-0.850D-01-0.512D+00-0.258D+00
 T= 1800. Gap= 0.178 NK=4 IS=   52 IE=   68
          NO(<0.9)=   0  NV(>0.1)=   0  60.00e < EF 0.00e >EF  Err=0.0D+00
 T= 1800. Gap= 0.178 NK=4 IS=   52 IE=   68
          NO(<0.9)=   0  NV(>0.1)=   0  60.00e < EF 0.00e >EF  Err=0.0D+00
 RMSDP=3.40D-03 MaxDP=9.63D-02

 Density matrix breaks symmetry, PCut= 1.00D-04
 Density matrix has no symmetry -- integrals replicated.
 Cycle   7  Pass 1  IDiag 1:
 RMSU=  3.36D-03    CP:  1.87D-02  5.04D-03  1.20D-02  8.10D-01  1.16D-01
                    CP:  9.67D-01
 E=-0.222919564680865D+04 Delta-E=       -3.642731168344
 DIIS: error= 8.37D-01 at cycle   7.
 Coeff: 0.244D-03-0.549D-01-0.957D-01-0.564D-01-0.498D+00 0.693D-01
 Coeff:-0.364D+00
 T= 1200. Gap= 0.246 NK=0 IS=    1 IE=  220
          NO(<0.9)=   0  NV(>0.1)=   0  60.00e < EF 0.00e >EF  Err=2.3D-12
 T= 1200. Gap= 0.246 NK=0 IS=    1 IE=  220
          NO(<0.9)=   0  NV(>0.1)=   0  60.00e < EF 0.00e >EF  Err=2.3D-12
 RMSDP=9.42D-04 MaxDP=4.06D-02

 Density matrix breaks symmetry, PCut= 1.00D-04
 Density matrix has no symmetry -- integrals replicated.
 Cycle   8  Pass 1  IDiag 1:
 RMSU=  6.95D-04    CP:  1.88D-02  5.22D-03  1.23D-02  8.15D-01  1.10D-01
                    CP:  9.57D-01  8.30D-01
 E=-0.222811063953643D+04 Delta-E=        1.085007272227
 DIIS: error= 8.53D-01 at cycle   8.
 Coeff:-0.239D-02-0.449D-01-0.887D-01-0.996D-01-0.475D+00-0.256D+00
 Coeff:-0.336D+01 0.333D+01
 T=  900. Gap= 0.146 NK=0 IS=    1 IE=  220
          NO(<0.9)=   0  NV(>0.1)=   0  60.00e < EF 0.00e >EF  Err=1.5D-11
 T=  900. Gap= 0.146 NK=0 IS=    1 IE=  220
          NO(<0.9)=   0  NV(>0.1)=   0  60.00e < EF 0.00e >EF  Err=1.5D-11
 RMSDP=2.45D-03 MaxDP=1.38D-01

 Density matrix breaks symmetry, PCut= 1.00D-04
 Density matrix has no symmetry -- integrals replicated.
 Cycle   9  Pass 1  IDiag 1:
 RMSU=  2.33D-03    CP:  1.86D-02  5.03D-03  1.22D-02  8.13D-01  1.20D-01
                    CP:  9.48D-01  7.93D-01  1.95D+00
 E=-0.222873580591595D+04 Delta-E=       -0.625166379518
 DIIS: error= 8.86D-01 at cycle   9.
 Coeff:-0.297D-02-0.436D-01-0.818D-01-0.118D+00-0.447D+00-0.330D+00
 Coeff:-0.484D+01 0.532D+01-0.452D+00
 T=  900. Gap= 0.155 NK=4 IS=   49 IE=   66
          NO(<0.9)=   0  NV(>0.1)=   0  60.00e < EF 0.00e >EF  Err=0.0D+00
 T=  900. Gap= 0.155 NK=4 IS=   49 IE=   66
          NO(<0.9)=   0  NV(>0.1)=   0  60.00e < EF 0.00e >EF  Err=0.0D+00
 RMSDP=1.98D-03 MaxDP=7.71D-02

 Density matrix breaks symmetry, PCut= 1.00D-04
 Density matrix has no symmetry -- integrals replicated.
 Cycle  10  Pass 1  IDiag 1:
 RMSU=  1.37D-03    CP:  1.84D-02  5.15D-03  1.21D-02  8.11D-01  1.22D-01
                    CP:  9.56D-01  8.10D-01  1.52D+00  4.05D-01
 E=-0.223041393226379D+04 Delta-E=       -1.678126347850
 DIIS: error= 8.40D-01 at cycle  10.
 Coeff:-0.259D-02-0.430D-01-0.792D-01-0.129D+00-0.443D+00-0.383D+00
 Coeff:-0.469D+01 0.546D+01-0.284D+00-0.410D+00
 T=  300. Gap= 0.166 NK=0 IS=    1 IE=  220
          NO(<0.9)=   0  NV(>0.1)=   0  60.00e < EF 0.00e >EF  Err=0.0D+00
 T=  300. Gap= 0.166 NK=0 IS=    1 IE=  220
          NO(<0.9)=   0  NV(>0.1)=   0  60.00e < EF 0.00e >EF  Err=0.0D+00
 RMSDP=7.16D-04 MaxDP=3.12D-02

 Density matrix breaks symmetry, PCut= 1.00D-04
 Density matrix has no symmetry -- integrals replicated.
 Cycle  11  Pass 1  IDiag 1:
 RMSU=  4.37D-04    CP:  1.85D-02  5.27D-03  1.20D-02  8.08D-01  1.25D-01
                    CP:  9.60D-01  9.13D-01  1.28D+00  2.81D-01  1.18D+00
 E=-0.223137802347825D+04 Delta-E=       -0.964091214457
 DIIS: error= 8.14D-01 at cycle  11.
 Coeff:-0.289D-02-0.395D-01-0.776D-01-0.130D+00-0.443D+00-0.505D+00
 Coeff:-0.356D+01 0.445D+01-0.788D+00 0.232D+01-0.223D+01
 RMSDP=1.45D-03 MaxDP=8.92D-02

 Density matrix breaks symmetry, PCut= 1.00D-04
 Density matrix has no symmetry -- integrals replicated.
 Cycle  12  Pass 1  IDiag 1:
 RMSU=  9.70D-04    CP:  1.86D-02  5.30D-03  1.19D-02  8.03D-01  1.32D-01
                    CP:  9.54D-01  1.06D+00  9.85D-01  2.25D-02  1.64D+00
                    CP:  1.53D+00
 E=-0.223301378499245D+04 Delta-E=       -1.635761514197
 DIIS: error= 7.78D-01 at cycle  12.
 Coeff:-0.310D-02-0.391D-01-0.729D-01-0.130D+00-0.433D+00-0.586D+00
 Coeff:-0.382D+01 0.473D+01-0.944D+00 0.161D+01-0.539D+00-0.783D+00
 RMSDP=2.14D-03 MaxDP=1.34D-01

 Density matrix breaks symmetry, PCut= 1.00D-04
 Density matrix has no symmetry -- integrals replicated.
 Cycle  13  Pass 1  IDiag 1:
 RMSU=  1.42D-03    CP:  1.86D-02  5.51D-03  1.19D-02  7.98D-01  1.39D-01
                    CP:  9.48D-01  1.12D+00  1.16D+00  1.82D-01  1.67D+00
                    CP:  3.00D+00 -1.26D-01
 E=-0.223462751758747D+04 Delta-E=       -1.613732595024
 DIIS: error= 7.97D-01 at cycle  13.
 Coeff:-0.317D-02-0.403D-01-0.653D-01-0.129D+00-0.410D+00-0.671D+00
 Coeff:-0.480D+01 0.561D+01-0.806D+00-0.146D+01 0.357D+01-0.103D+01
 Coeff:-0.757D+00
 RMSDP=1.74D-03 MaxDP=1.06D-01

 Density matrix breaks symmetry, PCut= 1.00D-04
 Density matrix has no symmetry -- integrals replicated.
 Cycle  14  Pass 1  IDiag 1:
 RMSU=  1.30D-03    CP:  1.87D-02  5.99D-03  1.18D-02  7.90D-01  1.50D-01
                    CP:  9.40D-01  1.19D+00  1.11D+00  2.01D-01  2.18D+00
                    CP:  3.00D+00  6.25D-01  1.16D+00
 E=-0.223714574690756D+04 Delta-E=       -2.518229320091
 DIIS: error= 7.48D-01 at cycle  14.
 Coeff:-0.308D-02-0.383D-01-0.657D-01-0.114D+00-0.383D+00-0.488D+00
 Coeff:-0.523D+01 0.538D+01 0.209D-01-0.393D+01 0.473D+01 0.273D-01
 Coeff: 0.669D+00-0.158D+01
 RMSDP=2.67D-03 MaxDP=2.30D-01

 Density matrix breaks symmetry, PCut= 1.00D-04
 Density matrix has no symmetry -- integrals replicated.
 Cycle  15  Pass 1  IDiag 1:
 RMSU=  1.89D-03    CP:  1.85D-02  5.89D-03  1.16D-02  7.80D-01  1.65D-01
                    CP:  9.19D-01  1.15D+00  1.46D+00  5.24D-01  2.15D+00
                    CP:  3.00D+00  3.27D-01  2.25D+00  1.23D+00
 E=-0.223973827218650D+04 Delta-E=       -2.592525278941
 DIIS: error= 6.75D-01 at cycle  15.
 Coeff:-0.285D-02-0.266D-01-0.515D-01-0.891D-01-0.325D+00-0.276D+00
 Coeff:-0.373D+01 0.342D+01 0.495D+00-0.256D+01 0.223D+01-0.169D-01
 Coeff: 0.237D+01-0.127D+01-0.116D+01
 RMSDP=3.36D-03 MaxDP=2.39D-01

 Density matrix breaks symmetry, PCut= 1.00D-04
 Density matrix has no symmetry -- integrals replicated.
 Cycle  16  Pass 1  IDiag 1:
 RMSU=  2.14D-03    CP:  1.87D-02  6.61D-03  1.16D-02  7.68D-01  1.80D-01
                    CP:  9.03D-01  1.22D+00  1.09D+00  2.92D-01  2.70D+00
                    CP:  3.00D+00  1.43D+00  1.80D+00  2.69D+00  7.69D-01
 E=-0.224246682042701D+04 Delta-E=       -2.728548240507
 DIIS: error= 5.16D-01 at cycle  16.
 Coeff:-0.114D-02-0.197D-01-0.282D-01-0.580D-01-0.247D+00-0.224D+00
 Coeff:-0.133D+01 0.128D+01-0.155D+00-0.203D+00 0.885D+00-0.423D+00
 Coeff: 0.590D+00 0.748D+00-0.764D+00-0.105D+01
 RMSDP=3.98D-03 MaxDP=1.72D-01

 Density matrix breaks symmetry, PCut= 1.00D-04
 Density matrix has no symmetry -- integrals replicated.
 Cycle  17  Pass 1  IDiag 1:
 RMSU=  3.43D-03    CP:  1.90D-02  7.70D-03  1.16D-02  7.49D-01  2.06D-01
                    CP:  8.60D-01  1.18D+00  1.04D+00  6.89D-01  2.74D+00
                    CP:  3.00D+00  1.43D+00  1.77D+00  3.00D+00  1.24D+00
                    CP:  1.42D+00
 E=-0.224577408799515D+04 Delta-E=       -3.307267568136
 DIIS: error= 3.60D-01 at cycle  17.
 Coeff:-0.101D-02-0.182D-01-0.266D-01-0.421D-01-0.221D+00-0.192D+00
 Coeff:-0.143D+01 0.125D+01-0.467D-01-0.146D+01 0.255D+01-0.405D+00
 Coeff: 0.151D-01 0.401D+00-0.419D+00-0.450D+00-0.505D+00
 RMSDP=4.96D-03 MaxDP=1.88D-01

 Density matrix breaks symmetry, PCut= 1.00D-04
 Density matrix has no symmetry -- integrals replicated.
 Cycle  18  Pass 1  IDiag 1:
 RMSU=  3.84D-03    CP:  1.80D-02  5.37D-03  1.00D-02  7.32D-01  2.39D-01
                    CP:  7.58D-01  8.28D-01  4.67D-01  8.38D-01  2.63D+00
                    CP:  3.00D+00  2.03D+00  1.83D+00  2.15D+00  1.36D+00
                    CP:  1.87D+00  1.41D+00
 E=-0.224825157430985D+04 Delta-E=       -2.477486314703
 DIIS: error= 1.66D-01 at cycle  18.
 Coeff: 0.609D-04-0.461D-02-0.266D-02-0.112D-01-0.616D-01 0.380D-01
 Coeff:-0.217D+00 0.103D-01 0.251D+00-0.144D+00-0.391D+00 0.227D+00
 Coeff: 0.789D+00-0.438D+00-0.368D+00 0.146D+00 0.622D+00-0.145D+01
 RMSDP=3.15D-03 MaxDP=1.56D-01

 Density matrix breaks symmetry, PCut= 1.00D-04
 Density matrix has no symmetry -- integrals replicated.
 Cycle  19  Pass 1  IDiag 1:
 RMSU=  2.28D-03    CP:  1.76D-02  4.79D-03  9.52D-03  7.31D-01  2.48D-01
                    CP:  7.05D-01  5.55D-01  7.00D-01  9.76D-01  2.43D+00
                    CP:  3.00D+00  1.73D+00  2.11D+00  1.61D+00  1.46D+00
                    CP:  1.53D+00  1.45D+00  1.35D+00
 E=-0.224845732999721D+04 Delta-E=       -0.205755687361
 DIIS: error= 3.11D-01 at cycle  19.
 Coeff: 0.359D-03-0.342D-02-0.106D-02-0.513D-02-0.456D-01 0.375D-01
 Coeff:-0.130D+00 0.187D-01 0.107D+00-0.951D-01-0.145D+00 0.630D-01
 Coeff: 0.459D+00-0.302D+00-0.103D+00-0.254D-01 0.621D+00-0.114D+01
 Coeff:-0.316D+00
 RMSDP=1.62D-03 MaxDP=6.75D-02

 Density matrix breaks symmetry, PCut= 1.00D-04
 Density matrix has no symmetry -- integrals replicated.
 Cycle  20  Pass 1  IDiag 1:
 Restarting incremental Fock formation.
 E=-0.224880238605110D+04 Delta-E=       -0.345056053886
 DIIS: error= 1.08D-01 at cycle   1.
 RMSDP=4.62D-03 MaxDP=2.72D-01

 Density matrix breaks symmetry, PCut= 1.00D-04
 Density matrix has no symmetry -- integrals replicated.
 Cycle  21  Pass 1  IDiag 1:
 RMSU=  4.61D-03    CP:  9.88D-01
 E=-0.224771229358215D+04 Delta-E=        1.090092468952
 DIIS: error= 5.84D-01 at cycle   2.
 Coeff:-0.787D+00-0.213D+00
 RMSDP=3.45D-03 MaxDP=1.84D-01

 Density matrix breaks symmetry, PCut= 1.00D-04
 Density matrix has no symmetry -- integrals replicated.
 Cycle  22  Pass 1  IDiag 1:
 RMSU=  2.48D-03    CP:  9.92D-01  4.79D-01
 E=-0.224874955575656D+04 Delta-E=       -1.037262174419
 DIIS: error= 1.09D-01 at cycle   3.
 Coeff:-0.541D+00-0.154D+00-0.304D+00
 RMSDP=1.44D-03 MaxDP=5.44D-02

 Density matrix breaks symmetry, PCut= 1.00D-04
 Density matrix has no symmetry -- integrals replicated.
 Cycle  23  Pass 1  IDiag 1:
 RMSU=  8.07D-04    CP:  9.95D-01  2.94D-01  6.62D-01
 E=-0.224893566119469D+04 Delta-E=       -0.186105438125
 DIIS: error= 1.07D-01 at cycle   4.
 Coeff:-0.137D+00-0.150D+00 0.254D+00-0.966D+00
 RMSDP=5.24D-04 MaxDP=2.25D-02

 Density matrix breaks symmetry, PCut= 1.00D-04
 Density matrix has no symmetry -- integrals replicated.
 Cycle  24  Pass 1  IDiag 1:
 RMSU=  2.43D-04    CP:  9.96D-01  2.40D-01  5.41D-01  1.31D+00
 E=-0.224895462141538D+04 Delta-E=       -0.018960220686
 DIIS: error= 9.88D-02 at cycle   5.
 Coeff:-0.591D-01-0.144D+00 0.156D+00-0.289D+00-0.664D+00
 RMSDP=1.87D-04 MaxDP=8.49D-03

 Density matrix breaks symmetry, PCut= 1.00D-04
 Density matrix has no symmetry -- integrals replicated.
 Cycle  25  Pass 1  IDiag 1:
 RMSU=  1.28D-04    CP:  9.96D-01  2.33D-01  5.09D-01  1.40D+00  1.33D+00
 E=-0.224895708734934D+04 Delta-E=       -0.002465933970
 DIIS: error= 9.47D-02 at cycle   6.
 Coeff:-0.208D-01-0.136D+00 0.162D-01 0.205D+00-0.242D+00-0.823D+00
 RMSDP=8.24D-05 MaxDP=3.11D-03

 Density matrix breaks symmetry, PCut= 1.00D-04
 Density matrix has no symmetry -- integrals replicated.
 Cycle  26  Pass 1  IDiag 1:
 RMSU=  5.25D-05    CP:  9.95D-01  2.38D-01  5.09D-01  1.42D+00  1.55D+00
                    CP:  1.15D+00
 E=-0.224895913415872D+04 Delta-E=       -0.002046809371
 DIIS: error= 9.05D-02 at cycle   7.
 Coeff:-0.331D-01-0.125D+00 0.381D-01-0.205D-01 0.332D+00 0.783D+00
 Coeff:-0.197D+01
 RMSDP=7.65D-05 MaxDP=3.93D-03

 Density matrix breaks symmetry, PCut= 1.00D-04
 Density matrix has no symmetry -- integrals replicated.
 Cycle  27  Pass 1  IDiag 1:
 RMSU=  4.69D-05    CP:  9.95D-01  2.48D-01  5.06D-01  1.42D+00  1.67D+00
                    CP:  1.31D+00  1.19D+00
 E=-0.224896296670212D+04 Delta-E=       -0.003832543403
 DIIS: error= 8.25D-02 at cycle   8.
 Coeff:-0.624D-01-0.901D-01 0.141D+00-0.529D+00 0.888D+00 0.294D+01
 Coeff:-0.220D+01-0.208D+01
 RMSDP=1.25D-04 MaxDP=8.43D-03

 Density matrix breaks symmetry, PCut= 1.00D-04
 Density matrix has no symmetry -- integrals replicated.
 Cycle  28  Pass 1  IDiag 1:
 RMSU=  6.02D-05    CP:  9.95D-01  2.68D-01  4.91D-01  1.44D+00  1.73D+00
                    CP:  1.44D+00  1.93D+00  1.10D+00
 E=-0.224897137724053D+04 Delta-E=       -0.008410538409
 DIIS: error= 5.97D-02 at cycle   9.
 Coeff:-0.565D-01-0.347D-01 0.146D+00-0.460D+00 0.512D+00 0.200D+01
 Coeff: 0.205D+00-0.183D+01-0.148D+01
 RMSDP=1.47D-04 MaxDP=9.54D-03

 Density matrix breaks symmetry, PCut= 1.00D-04
 Density matrix has no symmetry -- integrals replicated.
 Cycle  29  Pass 1  IDiag 1:
 RMSU=  6.84D-05    CP:  9.95D-01  2.91D-01  4.66D-01  1.46D+00  1.71D+00
                    CP:  1.48D+00  2.37D+00  1.67D+00  9.00D-01
 E=-0.224897854564916D+04 Delta-E=       -0.007168408635
 DIIS: error= 2.94D-02 at cycle  10.
 Coeff:-0.453D-02-0.111D-02 0.437D-02 0.173D+00-0.256D+00-0.901D+00
 Coeff: 0.158D+01 0.336D+00-0.716D+00-0.121D+01
 RMSDP=8.72D-05 MaxDP=6.45D-03

 Density matrix breaks symmetry, PCut= 1.00D-04
 Density matrix has no symmetry -- integrals replicated.
 Cycle  30  Pass 1  IDiag 1:
 RMSU=  4.27D-05    CP:  9.95D-01  3.01D-01  4.46D-01  1.48D+00  1.70D+00
                    CP:  1.38D+00  1.98D+00  1.68D+00  1.23D+00  1.04D+00
 E=-0.224898070819416D+04 Delta-E=       -0.002162544998
 DIIS: error= 1.01D-02 at cycle  11.
 Coeff: 0.432D-02-0.104D-02-0.168D-01 0.176D+00-0.209D+00-0.798D+00
 Coeff: 0.820D+00 0.460D+00-0.186D+00-0.513D+00-0.737D+00
 RMSDP=4.65D-05 MaxDP=4.45D-03

 Density matrix breaks symmetry, PCut= 1.00D-04
 Density matrix has no symmetry -- integrals replicated.
 Cycle  31  Pass 1  IDiag 1:
 RMSU=  2.84D-05    CP:  9.95D-01  3.03D-01  4.38D-01  1.49D+00  1.68D+00
                    CP:  1.30D+00  1.61D+00  1.52D+00  1.27D+00  1.14D+00
                    CP:  1.28D+00
 E=-0.224898103065225D+04 Delta-E=       -0.000322458087
 DIIS: error= 3.93D-03 at cycle  12.
 Coeff: 0.185D-02 0.743D-04-0.140D-01 0.615D-01-0.442D-01-0.222D+00
 Coeff: 0.635D-01 0.180D+00 0.785D-01 0.146D-01-0.260D+00-0.860D+00
 RMSDP=3.01D-05 MaxDP=3.45D-03

 Density matrix breaks symmetry, PCut= 1.00D-04
 Density matrix has no symmetry -- integrals replicated.
 Cycle  32  Pass 1  IDiag 1:
 RMSU=  1.30D-05    CP:  9.95D-01  3.05D-01  4.35D-01  1.49D+00  1.67D+00
                    CP:  1.26D+00  1.39D+00  1.29D+00  1.19D+00  1.18D+00
                    CP:  1.62D+00  1.40D+00
 E=-0.224898108926859D+04 Delta-E=       -0.000058616340
 DIIS: error= 1.16D-03 at cycle  13.
 Coeff: 0.351D-03 0.343D-03-0.199D-03-0.287D-01 0.334D-01 0.151D+00
 Coeff:-0.211D+00-0.633D-01 0.748D-01 0.142D+00 0.117D+00 0.127D+00
 Coeff:-0.134D+01
 RMSDP=2.69D-05 MaxDP=2.96D-03

 Density matrix breaks symmetry, PCut= 1.00D-04
 Density matrix has no symmetry -- integrals replicated.
 Cycle  33  Pass 1  IDiag 1:
 RMSU=  6.60D-06    CP:  9.95D-01  3.05D-01  4.36D-01  1.49D+00  1.66D+00
                    CP:  1.23D+00  1.21D+00  1.05D+00  1.06D+00  1.17D+00
                    CP:  1.91D+00  1.81D+00  1.68D+00
 E=-0.224898110971427D+04 Delta-E=       -0.000020445685
 DIIS: error= 5.11D-04 at cycle  14.
 Coeff:-0.477D-03 0.710D-04 0.366D-02-0.267D-01 0.174D-01 0.963D-01
 Coeff:-0.662D-01-0.676D-01-0.497D-02 0.244D-01 0.126D+00 0.336D+00
 Coeff: 0.172D+00-0.161D+01
 RMSDP=2.48D-05 MaxDP=2.47D-03

 Density matrix breaks symmetry, PCut= 1.00D-04
 Density matrix has no symmetry -- integrals replicated.
 Cycle  34  Pass 1  IDiag 1:
 RMSU=  3.71D-06    CP:  9.95D-01  3.05D-01  4.38D-01  1.48D+00  1.65D+00
                    CP:  1.20D+00  1.07D+00  8.41D-01  9.36D-01  1.14D+00
                    CP:  2.14D+00  2.19D+00  2.43D+00  1.90D+00
 E=-0.224898112357199D+04 Delta-E=       -0.000013857714
 DIIS: error= 8.10D-04 at cycle  15.
 Coeff: 0.219D-03-0.772D-04 0.995D-03 0.754D-02-0.149D-01-0.662D-01
 Coeff: 0.980D-01 0.210D-01-0.329D-01-0.648D-01 0.270D-02 0.741D-01
 Coeff: 0.814D+00-0.310D+00-0.153D+01
 RMSDP=2.09D-05 MaxDP=2.01D-03

 Density matrix breaks symmetry, PCut= 1.00D-04
 Density matrix has no symmetry -- integrals replicated.
 Cycle  35  Pass 1  IDiag 1:
 RMSU=  2.83D-06    CP:  9.95D-01  3.05D-01  4.40D-01  1.48D+00  1.64D+00
                    CP:  1.17D+00  9.42D-01  6.79D-01  8.34D-01  1.11D+00
                    CP:  2.31D+00  2.49D+00  3.00D+00  3.00D+00  1.92D+00
 E=-0.224898113076484D+04 Delta-E=       -0.000007192855
 DIIS: error= 1.13D-03 at cycle  16.
 Coeff:-0.990D-04 0.215D-03-0.343D-03 0.130D-01-0.137D-01-0.739D-01
 Coeff: 0.949D-01 0.398D-01-0.227D-01-0.537D-01-0.370D-01-0.593D-01
 Coeff: 0.437D+00 0.383D+00-0.517D+00-0.119D+01
 RMSDP=1.54D-05 MaxDP=1.58D-03

 Density matrix breaks symmetry, PCut= 1.00D-04
 Density matrix has no symmetry -- integrals replicated.
 Cycle  36  Pass 1  IDiag 1:
 RMSU=  8.06D-06    CP:  9.95D-01  3.05D-01  4.40D-01  1.48D+00  1.64D+00
                    CP:  1.16D+00  8.59D-01  5.72D-01  7.70D-01  1.10D+00
                    CP:  2.43D+00  2.70D+00  3.00D+00  3.00D+00  2.96D+00
                    CP:  2.78D+00
 E=-0.224898113666235D+04 Delta-E=       -0.000005897505
 DIIS: error= 8.80D-04 at cycle  17.
 Coeff:-0.153D-03 0.829D-04-0.612D-03 0.558D-03 0.323D-02 0.206D-01
 Coeff:-0.417D-01 0.126D-01 0.230D-01 0.369D-01-0.315D-02-0.850D-01
 Coeff:-0.534D+00 0.570D+00 0.140D+01-0.564D+00-0.184D+01
 RMSDP=1.60D-05 MaxDP=1.42D-03

 Density matrix breaks symmetry, PCut= 1.00D-04
 Density matrix has no symmetry -- integrals replicated.
 Cycle  37  Pass 1  IDiag 1:
 RMSU=  9.12D-06    CP:  9.95D-01  3.05D-01  4.40D-01  1.48D+00  1.63D+00
                    CP:  1.15D+00  7.81D-01  4.78D-01  7.17D-01  1.09D+00
                    CP:  2.53D+00  2.89D+00  3.00D+00  3.00D+00  3.00D+00
                    CP:  3.00D+00  1.95D+00
 E=-0.224898114099960D+04 Delta-E=       -0.000004337256
 DIIS: error= 7.68D-04 at cycle  18.
 Coeff:-0.265D-03 0.451D-04 0.122D-03-0.615D-02 0.681D-02 0.480D-01
 Coeff:-0.586D-01-0.110D-01 0.181D-01 0.388D-01 0.191D-01 0.121D-01
 Coeff:-0.462D+00-0.109D-01 0.102D+01 0.603D+00-0.853D+00-0.136D+01
 RMSDP=1.29D-05 MaxDP=9.94D-04

 Density matrix breaks symmetry, PCut= 1.00D-04
 Density matrix has no symmetry -- integrals replicated.
 Cycle  38  Pass 1  IDiag 1:
 RMSU=  2.10D-06    CP:  9.95D-01  3.05D-01  4.40D-01  1.48D+00  1.63D+00
                    CP:  1.14D+00  7.36D-01  4.19D-01  6.85D-01  1.08D+00
                    CP:  2.60D+00  3.00D+00  3.00D+00  3.00D+00  3.00D+00
                    CP:  3.00D+00  2.69D+00  1.99D+00
 E=-0.224898114432499D+04 Delta-E=       -0.000003325386
 DIIS: error= 5.62D-04 at cycle  19.
 Coeff:-0.363D-04 0.600D-04 0.149D-03-0.220D-02 0.185D-02 0.780D-02
 Coeff:-0.565D-02-0.611D-02 0.268D-02 0.499D-02 0.834D-02 0.349D-01
 Coeff:-0.304D-01-0.150D+00 0.560D-01 0.520D+00-0.294D+00 0.729D+00
 Coeff:-0.188D+01
 RMSDP=1.13D-05 MaxDP=7.47D-04

 Density matrix breaks symmetry, PCut= 1.00D-04
 Density matrix has no symmetry -- integrals replicated.
 Cycle  39  Pass 1  IDiag 1:
 RMSU=  2.72D-06    CP:  9.95D-01  3.06D-01  4.40D-01  1.48D+00  1.63D+00
                    CP:  1.13D+00  7.01D-01  3.79D-01  6.64D-01  1.08D+00
                    CP:  2.66D+00  3.00D+00  3.00D+00  3.00D+00  3.00D+00
                    CP:  3.00D+00  3.00D+00  2.91D+00  2.91D+00
 E=-0.224898114677213D+04 Delta-E=       -0.000002447141
 DIIS: error= 4.38D-04 at cycle  20.
 Coeff:-0.557D-04 0.684D-04 0.198D-03-0.306D-02 0.248D-02 0.121D-01
 Coeff:-0.914D-02-0.927D-02 0.312D-02 0.677D-02 0.107D-01 0.485D-01
 Coeff:-0.408D-01-0.213D+00 0.694D-01 0.709D+00-0.314D+00 0.707D+00
 Coeff:-0.249D+01 0.514D+00
 RMSDP=5.34D-06 MaxDP=4.29D-04

 Density matrix breaks symmetry, PCut= 1.00D-04
 Density matrix has no symmetry -- integrals replicated.
 Cycle  40  Pass 1  IDiag 1:
 Restarting incremental Fock formation.
 E=-0.224898114799039D+04 Delta-E=       -0.000001218264
 DIIS: error= 2.54D-04 at cycle   1.
 RMSDP=9.32D-06 MaxDP=6.72D-04

 Density matrix breaks symmetry, PCut= 1.00D-04
 Density matrix has no symmetry -- integrals replicated.
 Cycle  41  Pass 1  IDiag 1:
 RMSU=  9.32D-06    CP:  1.00D+00
 E=-0.224898114097095D+04 Delta-E=        0.000007019447
 DIIS: error= 1.77D-03 at cycle   2.
 Coeff:-0.886D+00-0.114D+00
 RMSDP=4.60D-06 MaxDP=2.36D-04

 Density matrix breaks symmetry, PCut= 1.00D-04
 Density matrix has no symmetry -- integrals replicated.
 Cycle  42  Pass 1  IDiag 1:
 RMSU=  4.25D-06    CP:  1.00D+00  8.12D-01
 E=-0.224898114732286D+04 Delta-E=       -0.000006351912
 DIIS: error= 9.08D-04 at cycle   3.
 Coeff:-0.776D+00 0.324D-01-0.257D+00
 RMSDP=2.50D-06 MaxDP=1.49D-04

 Density matrix breaks symmetry, PCut= 1.00D-04
 Density matrix has no symmetry -- integrals replicated.
 Cycle  43  Pass 1  IDiag 1:
 RMSU=  7.47D-07    CP:  1.00D+00  7.63D-01  1.55D+00
 E=-0.224898114914182D+04 Delta-E=       -0.000001818957
 DIIS: error= 5.27D-04 at cycle   4.
 Coeff:-0.915D+00 0.203D+00-0.108D+01 0.787D+00
 RMSDP=7.81D-07 MaxDP=4.29D-05

 Density matrix breaks symmetry, PCut= 1.00D-04
 Density matrix has no symmetry -- integrals replicated.
 Cycle  44  Pass 1  IDiag 1:
 RMSU=  2.70D-07    CP:  1.00D+00  6.98D-01  1.64D+00  1.26D+00
 E=-0.224898114952661D+04 Delta-E=       -0.000000384792
 DIIS: error= 3.61D-04 at cycle   5.
 Coeff:-0.119D+01 0.407D+00-0.341D+01 0.583D+01-0.263D+01
 RMSDP=2.96D-06 MaxDP=2.48D-04

 Density matrix breaks symmetry, PCut= 1.00D-04
 Density matrix has no symmetry -- integrals replicated.
 Cycle  45  Pass 1  IDiag 1:
 RMSU=  3.78D-07    CP:  1.00D+00  5.39D-01  1.10D+00  2.28D-01  3.00D+00
 E=-0.224898114898182D+04 Delta-E=        0.000000544784
 DIIS: error= 3.35D-04 at cycle   6.
 Coeff:-0.122D+01 0.345D+00-0.297D+01 0.466D+01-0.107D+01-0.745D+00
 RMSDP=2.54D-06 MaxDP=2.08D-04

 Density matrix breaks symmetry, PCut= 1.00D-04
 Density matrix has no symmetry -- integrals replicated.
 Cycle  46  Pass 1  IDiag 1:
 RMSU=  3.20D-07    CP:  1.00D+00  4.07D-01  6.27D-01 -7.09D-01  3.00D+00
                    CP:  2.45D+00
 E=-0.224898114850859D+04 Delta-E=        0.000000473237
 DIIS: error= 3.29D-04 at cycle   7.
 Coeff:-0.798D+00-0.214D+00 0.594D+01-0.200D+02 0.220D+02 0.617D+00
 Coeff:-0.859D+01
 RMSDP=1.41D-05 MaxDP=1.19D-03

 Density matrix breaks symmetry, PCut= 1.00D-04
 Density matrix has no symmetry -- integrals replicated.
 Cycle  47  Pass 1  IDiag 1:
 RMSU=  5.11D-06    CP:  1.00D+00 -2.83D-01 -1.91D+00 -3.00D+00  3.00D+00
                    CP:  3.00D+00  3.00D+00
 E=-0.224898114589054D+04 Delta-E=        0.000002618046
 DIIS: error= 3.52D-04 at cycle   8.
 Coeff:-0.641D+00-0.230D+00 0.735D+01-0.237D+02 0.231D+02 0.213D+01
 Coeff:-0.830D+01-0.742D+00
 RMSDP=9.88D-06 MaxDP=8.06D-04

 Density matrix breaks symmetry, PCut= 1.00D-04
 Density matrix has no symmetry -- integrals replicated.
 Cycle  48  Pass 1  IDiag 1:
 RMSU=  3.13D-06    CP:  1.00D+00 -7.84D-01 -3.00D+00 -3.00D+00  3.00D+00
                    CP:  3.00D+00  3.00D+00  1.86D+00
 E=-0.224898114443798D+04 Delta-E=        0.000001452556
 DIIS: error= 3.04D-04 at cycle   9.
 Coeff:-0.325D+00-0.184D+00 0.432D+01-0.132D+02 0.107D+02 0.400D+01
 Coeff:-0.467D+01 0.192D+01-0.358D+01
 RMSDP=2.09D-05 MaxDP=1.74D-03

 Density matrix breaks symmetry, PCut= 1.00D-04
 Density matrix has no symmetry -- integrals replicated.
 Cycle  49  Pass 1  IDiag 1:
 RMSU=  1.10D-05    CP:  1.00D+00 -1.79D+00 -3.00D+00 -3.00D+00  3.00D+00
                    CP:  3.00D+00  3.00D+00  3.00D+00  3.00D+00
 E=-0.224898114167540D+04 Delta-E=        0.000002762583
 DIIS: error= 2.46D-04 at cycle  10.
 Coeff: 0.148D+00 0.166D+00-0.675D+01 0.207D+02-0.190D+02 0.116D+00
 Coeff: 0.271D+01 0.882D+01-0.585D+01-0.207D+01
 RMSDP=2.25D-05 MaxDP=1.84D-03

 Density matrix breaks symmetry, PCut= 1.00D-04
 Density matrix has no symmetry -- integrals replicated.
 Cycle  50  Pass 1  IDiag 1:
 RMSU=  6.73D-06    CP:  1.00D+00 -2.87D+00 -3.00D+00 -3.00D+00  3.00D+00
                    CP:  3.00D+00  3.00D+00  3.00D+00  3.00D+00  2.73D+00
 E=-0.224898113967830D+04 Delta-E=        0.000001997100
 DIIS: error= 1.07D-04 at cycle  11.
 Coeff: 0.153D+00 0.167D+00-0.682D+01 0.209D+02-0.192D+02 0.605D-01
 Coeff: 0.278D+01 0.882D+01-0.582D+01-0.206D+01-0.237D-01
 RMSDP=1.19D-05 MaxDP=9.43D-04

 Density matrix breaks symmetry, PCut= 1.00D-04
 Density matrix has no symmetry -- integrals replicated.
 Cycle  51  Pass 1  IDiag 1:
 RMSU=  8.09D-06    CP:  1.00D+00 -3.00D+00 -3.00D+00 -3.00D+00  3.00D+00
                    CP:  3.00D+00  3.00D+00  3.00D+00  3.00D+00  3.00D+00
                    CP:  1.59D+00
 E=-0.224898113899862D+04 Delta-E=        0.000000679682
 DIIS: error= 6.92D-05 at cycle  12.
 Coeff:-0.398D-01 0.131D+00-0.336D+01 0.958D+01-0.847D+01 0.577D+00
 Coeff: 0.919D+00 0.439D+01-0.326D+01-0.127D+01 0.123D+01-0.143D+01
 RMSDP=8.88D-06 MaxDP=7.05D-04

 Density matrix breaks symmetry, PCut= 1.00D-04
 Density matrix has no symmetry -- integrals replicated.
 Cycle  52  Pass 1  IDiag 1:
 RMSU=  8.89D-07    CP:  1.00D+00 -3.00D+00 -3.00D+00 -3.00D+00  3.00D+00
                    CP:  3.00D+00  3.00D+00  3.00D+00  3.00D+00  3.00D+00
                    CP:  2.00D+00  2.04D+00
 E=-0.224898113863630D+04 Delta-E=        0.000000362320
 DIIS: error= 1.01D-04 at cycle  13.
 Coeff:-0.378D-01 0.133D+00-0.340D+01 0.971D+01-0.857D+01 0.572D+00
 Coeff: 0.930D+00 0.443D+01-0.329D+01-0.128D+01 0.124D+01-0.145D+01
 Coeff: 0.182D-01
 RMSDP=4.75D-06 MaxDP=3.68D-04

 Density matrix breaks symmetry, PCut= 1.00D-04
 Density matrix has no symmetry -- integrals replicated.
 Cycle  53  Pass 1  IDiag 1:
 RMSU=  2.66D-07    CP:  1.00D+00 -3.00D+00 -3.00D+00 -3.00D+00  3.00D+00
                    CP:  3.00D+00  3.00D+00  3.00D+00  3.00D+00  3.00D+00
                    CP:  2.23D+00  2.59D+00  1.51D+00
 E=-0.224898113851219D+04 Delta-E=        0.000000124106
 DIIS: error= 1.23D-04 at cycle  14.
 Coeff:-0.202D+00 0.127D+00-0.140D+01 0.254D+01-0.255D+01 0.110D+01
 Coeff: 0.488D+00 0.162D+01-0.160D+01-0.100D+01 0.374D+01-0.200D+01
 Coeff:-0.796D+01 0.610D+01
 RMSDP=3.41D-06 MaxDP=2.67D-04

 Density matrix breaks symmetry, PCut= 1.00D-04
 Density matrix has no symmetry -- integrals replicated.
 Cycle  54  Pass 1  IDiag 1:
 RMSU=  2.86D-07    CP:  1.00D+00 -3.00D+00 -3.00D+00 -3.00D+00  3.00D+00
                    CP:  3.00D+00  3.00D+00  3.00D+00  3.00D+00  3.00D+00
                    CP:  2.40D+00  2.98D+00  1.64D+00  2.03D-01
 E=-0.224898113841974D+04 Delta-E=        0.000000092455
 DIIS: error= 1.24D-04 at cycle  15.
 Coeff:-0.162D+00 0.553D-01 0.272D+00-0.265D+01 0.238D+01 0.170D+01
 Coeff:-0.135D+01 0.668D+00-0.107D+01-0.600D+00 0.400D+01-0.255D+01
 Coeff:-0.101D+02 0.124D+02-0.400D+01
 RMSDP=2.90D-06 MaxDP=2.19D-04

 Density matrix breaks symmetry, PCut= 1.00D-04
 Density matrix has no symmetry -- integrals replicated.
 Cycle  55  Pass 1  IDiag 1:
 RMSU=  2.45D-06    CP:  1.00D+00 -3.00D+00 -3.00D+00 -3.00D+00  3.00D+00
                    CP:  3.00D+00  3.00D+00  3.00D+00  3.00D+00  3.00D+00
                    CP:  2.54D+00  3.00D+00  1.38D+00 -2.21D+00  3.00D+00
 E=-0.224898113831310D+04 Delta-E=        0.000000106634
 DIIS: error= 1.15D-04 at cycle  16.
 Coeff:-0.111D+00-0.322D-01 0.187D+01-0.729D+01 0.671D+01 0.208D+01
 Coeff:-0.288D+01-0.749D-01-0.677D+00-0.236D+00 0.377D+01-0.265D+01
 Coeff:-0.108D+02 0.161D+02-0.573D+01-0.102D+01
 RMSDP=2.81D-06 MaxDP=1.97D-04

 Density matrix breaks symmetry, PCut= 1.00D-04
 Density matrix has no symmetry -- integrals replicated.
 Cycle  56  Pass 1  IDiag 1:
 RMSU=  1.11D-06    CP:  1.00D+00 -3.00D+00 -3.00D+00 -3.00D+00  3.00D+00
                    CP:  3.00D+00  3.00D+00  3.00D+00  3.00D+00  3.00D+00
                    CP:  2.67D+00  3.00D+00  8.82D-01 -3.00D+00  3.00D+00
                    CP:  1.95D+00
 E=-0.224898113819601D+04 Delta-E=        0.000000117089
 DIIS: error= 1.03D-04 at cycle  17.
 Coeff:-0.828D-01 0.768D-01 0.792D-01-0.147D+01 0.781D+00 0.668D+00
 Coeff: 0.188D+00 0.928D+00-0.120D+01-0.700D+00 0.262D+01-0.816D+00
 Coeff:-0.657D+01 0.346D+01 0.364D+01 0.847D+00-0.345D+01
 RMSDP=3.34D-06 MaxDP=2.27D-04

 Density matrix breaks symmetry, PCut= 1.00D-04
 Density matrix has no symmetry -- integrals replicated.
 Cycle  57  Pass 1  IDiag 1:
 RMSU=  4.32D-07    CP:  1.00D+00 -3.00D+00 -3.00D+00 -3.00D+00  3.00D+00
                    CP:  3.00D+00  3.00D+00  3.00D+00  3.00D+00  3.00D+00
                    CP:  2.80D+00  3.00D+00  1.13D-01 -3.00D+00  3.00D+00
                    CP:  3.00D+00  2.47D+00
 E=-0.224898113805184D+04 Delta-E=        0.000000144177
 DIIS: error= 7.72D-05 at cycle  18.
 Coeff:-0.161D+00 0.177D+00-0.196D+01 0.470D+01-0.482D+01-0.381D+00
 Coeff: 0.259D+01 0.124D+01-0.109D+01-0.113D+01 0.233D+01 0.230D+00
 Coeff:-0.325D+01-0.784D+01 0.108D+02 0.202D+01-0.211D+01-0.232D+01
 RMSDP=3.56D-06 MaxDP=2.43D-04

 Density matrix breaks symmetry, PCut= 1.00D-04
 Density matrix has no symmetry -- integrals replicated.
 Cycle  58  Pass 1  IDiag 1:
 RMSU=  2.93D-06    CP:  1.00D+00 -3.00D+00 -3.00D+00 -3.00D+00  3.00D+00
                    CP:  3.00D+00  3.00D+00  3.00D+00  3.00D+00  3.00D+00
                    CP:  2.93D+00  3.00D+00 -7.74D-01 -3.00D+00  3.00D+00
                    CP:  3.00D+00  3.00D+00  3.00D+00
 E=-0.224898113790750D+04 Delta-E=        0.000000144342
 DIIS: error= 6.34D-05 at cycle  19.
 Coeff:-0.222D+00 0.195D+00-0.237D+01 0.593D+01-0.586D+01-0.413D+00
 Coeff: 0.291D+01 0.670D+00-0.509D+00-0.108D+01 0.224D+01 0.468D+00
 Coeff:-0.217D+01-0.105D+02 0.112D+02 0.188D+01 0.272D+00-0.261D+01
 Coeff:-0.101D+01
 RMSDP=3.13D-06 MaxDP=2.17D-04

 Density matrix breaks symmetry, PCut= 1.00D-04
 Density matrix has no symmetry -- integrals replicated.
 Cycle  59  Pass 1  IDiag 1:
 RMSU=  1.02D-06    CP:  1.00D+00 -3.00D+00 -3.00D+00 -3.00D+00  3.00D+00
                    CP:  3.00D+00  3.00D+00  3.00D+00  3.00D+00  3.00D+00
                    CP:  3.00D+00  3.00D+00 -1.55D+00 -3.00D+00  3.00D+00
                    CP:  3.00D+00  3.00D+00  3.00D+00  1.96D+00
 E=-0.224898113780812D+04 Delta-E=        0.000000099373
 DIIS: error= 5.66D-05 at cycle  20.
 Coeff:-0.596D-01 0.684D-01-0.459D+00 0.783D+00-0.859D+00 0.120D+01
 Coeff:-0.706D+00 0.155D+00-0.150D+00-0.190D+00 0.116D+01-0.816D+00
 Coeff:-0.237D+01 0.417D+01-0.361D+01-0.950D+00 0.327D+01 0.117D+01
 Coeff: 0.261D+00-0.306D+01
 RMSDP=3.32D-06 MaxDP=2.36D-04

 Density matrix breaks symmetry, PCut= 1.00D-04
 Density matrix has no symmetry -- integrals replicated.
 Cycle  60  Pass 1  IDiag 1:
 Restarting incremental Fock formation.
 E=-0.224898113774450D+04 Delta-E=        0.000000063619
 DIIS: error= 3.93D-05 at cycle   1.
 RMSDP=1.09D-06 MaxDP=1.07D-04

 Density matrix breaks symmetry, PCut= 1.00D-04
 Density matrix has no symmetry -- integrals replicated.
 Cycle  61  Pass 1  IDiag 1:
 RMSU=  1.09D-06    CP:  1.00D+00
 E=-0.224898113778873D+04 Delta-E=       -0.000000044226
 DIIS: error= 9.15D-05 at cycle   2.
 Coeff:-0.814D+00-0.186D+00
 RMSDP=7.29D-07 MaxDP=9.47D-05

 Density matrix breaks symmetry, PCut= 1.00D-04
 Density matrix has no symmetry -- integrals replicated.
 Cycle  62  Pass 1  IDiag 1:
 RMSU=  4.12D-07    CP:  1.00D+00  1.55D+00
 E=-0.224898113782848D+04 Delta-E=       -0.000000039750
 DIIS: error= 5.90D-05 at cycle   3.
 Coeff:-0.542D+00-0.170D+00-0.288D+00
 RMSDP=6.98D-07 MaxDP=8.76D-05

 Density matrix breaks symmetry, PCut= 1.00D-04
 Density matrix has no symmetry -- integrals replicated.
 Cycle  63  Pass 1  IDiag 1:
 RMSU=  1.54D-07    CP:  1.00D+00  2.12D+00  1.68D+00
 E=-0.224898113786545D+04 Delta-E=       -0.000000036970
 DIIS: error= 7.74D-05 at cycle   4.
 Coeff:-0.601D+00 0.369D+00-0.320D+01 0.244D+01
 RMSDP=5.25D-07 MaxDP=6.38D-05

 Density matrix breaks symmetry, PCut= 1.00D-04
 Density matrix has no symmetry -- integrals replicated.
 Cycle  64  Pass 1  IDiag 1:
 RMSU=  2.40D-07    CP:  1.00D+00  1.71D+00  1.48D+00  3.86D-01
 E=-0.224898113783474D+04 Delta-E=        0.000000030714
 DIIS: error= 8.15D-05 at cycle   5.
 Coeff: 0.391D+00 0.768D+00-0.838D+01 0.807D+01-0.184D+01
 RMSDP=1.36D-06 MaxDP=1.62D-04

 Density matrix breaks symmetry, PCut= 1.00D-04
 Density matrix has no symmetry -- integrals replicated.
 Cycle  65  Pass 1  IDiag 1:
 RMSU=  2.98D-07    CP:  1.00D+00  7.17D-01  4.49D-01 -3.00D+00  2.30D+00
 E=-0.224898113777376D+04 Delta-E=        0.000000060976
 DIIS: error= 7.56D-05 at cycle   6.
 Coeff: 0.543D+00 0.438D-01-0.558D+01 0.602D+01-0.107D+01-0.954D+00
 RMSDP=9.64D-07 MaxDP=1.11D-04

 Density matrix breaks symmetry, PCut= 1.00D-04
 Density matrix has no symmetry -- integrals replicated.
 Cycle  66  Pass 1  IDiag 1:
 RMSU=  4.81D-07    CP:  1.00D+00  1.49D-01 -4.47D-01 -3.00D+00  3.00D+00
                    CP:  2.09D+00
 E=-0.224898113775007D+04 Delta-E=        0.000000023695
 DIIS: error= 5.98D-05 at cycle   7.
 Coeff: 0.166D+00-0.140D+01 0.476D+01-0.349D+01 0.790D+00 0.193D+01
 Coeff:-0.375D+01
 RMSDP=1.36D-06 MaxDP=9.04D-05

 Density matrix breaks symmetry, PCut= 1.00D-04
 Density matrix has no symmetry -- integrals replicated.
 Cycle  67  Pass 1  IDiag 1:
 RMSU=  7.73D-07    CP:  1.00D+00  1.58D-01 -1.44D+00 -3.00D+00  3.00D+00
                    CP:  3.00D+00  2.77D+00
 E=-0.224898113775907D+04 Delta-E=       -0.000000009003
 DIIS: error= 2.06D-05 at cycle   8.
 Coeff:-0.869D-01-0.757D+00 0.528D+01-0.478D+01 0.889D+00 0.274D+01
 Coeff:-0.336D+01-0.921D+00
 RMSDP=1.27D-06 MaxDP=7.52D-05

 Density matrix breaks symmetry, PCut= 1.00D-04
 Density matrix has no symmetry -- integrals replicated.
 Cycle  68  Pass 1  IDiag 1:
 RMSU=  7.50D-07    CP:  1.00D+00  3.55D-01 -2.01D+00 -3.00D+00  3.00D+00
                    CP:  3.00D+00  3.00D+00  2.14D+00
 E=-0.224898113777206D+04 Delta-E=       -0.000000012988
 DIIS: error= 2.98D-05 at cycle   9.
 Coeff:-0.116D+00 0.706D+00 0.518D+00-0.127D+01 0.201D+00 0.131D+01
 Coeff:-0.806D+00-0.437D+00-0.111D+01
 RMSDP=1.16D-06 MaxDP=7.29D-05

 Density matrix breaks symmetry, PCut= 1.00D-04
 Density matrix has no symmetry -- integrals replicated.
 Cycle  69  Pass 1  IDiag 1:
 RMSU=  2.15D-07    CP:  1.00D+00  6.67D-01 -2.16D+00 -3.00D+00  3.00D+00
                    CP:  3.00D+00  3.00D+00  3.00D+00  2.00D+00
 E=-0.224898113778861D+04 Delta-E=       -0.000000016553
 DIIS: error= 2.18D-05 at cycle  10.
 Coeff:-0.257D-01 0.661D+00-0.813D+00 0.239D+00 0.422D-01-0.209D+00
 Coeff: 0.416D+00 0.157D+00-0.830D-01-0.139D+01
 RMSDP=1.11D-06 MaxDP=6.83D-05

 Density matrix breaks symmetry, PCut= 1.00D-04
 Density matrix has no symmetry -- integrals replicated.
 Cycle  70  Pass 1  IDiag 1:
 RMSU=  5.20D-07    CP:  1.00D+00  1.05D+00 -2.15D+00 -3.00D+00  3.00D+00
                    CP:  3.00D+00  3.00D+00  3.00D+00  2.89D+00  3.00D+00
 E=-0.224898113780539D+04 Delta-E=       -0.000000016787
 DIIS: error= 1.37D-05 at cycle  11.
 Coeff: 0.312D-01 0.902D-01-0.106D+00 0.920D-01 0.889D-01-0.539D+00
 Coeff: 0.289D+00 0.336D+00 0.521D+00-0.852D+00-0.951D+00
 RMSDP=9.18D-07 MaxDP=5.23D-05

 Density matrix breaks symmetry, PCut= 1.00D-04
 Density matrix has no symmetry -- integrals replicated.
 Cycle  71  Pass 1  IDiag 1:
 RMSU=  5.80D-07    CP:  1.00D+00  1.38D+00 -2.11D+00 -3.00D+00  3.00D+00
                    CP:  3.00D+00  3.00D+00  3.00D+00  3.00D+00  3.00D+00
                    CP:  2.05D+00
 E=-0.224898113781946D+04 Delta-E=       -0.000000014067
 DIIS: error= 1.30D-05 at cycle  12.
 Coeff: 0.386D-01-0.653D-01 0.257D+00-0.155D+00 0.736D-01-0.202D+00
 Coeff:-0.519D-01 0.208D+00 0.361D+00-0.311D+00-0.503D+00-0.649D+00
 RMSDP=5.78D-07 MaxDP=3.43D-05

 Density matrix breaks symmetry, PCut= 1.00D-04
 Density matrix has no symmetry -- integrals replicated.
 Cycle  72  Pass 1  IDiag 1:
 RMSU=  8.30D-08    CP:  1.00D+00  1.58D+00 -2.07D+00 -3.00D+00  3.00D+00
                    CP:  3.00D+00  3.00D+00  3.00D+00  3.00D+00  3.00D+00
                    CP:  2.69D+00  1.72D+00
 E=-0.224898113782875D+04 Delta-E=       -0.000000009292
 DIIS: error= 1.38D-05 at cycle  13.
 Coeff: 0.304D-01-0.107D+00 0.335D+00-0.189D+00 0.830D-01-0.215D+00
 Coeff:-0.776D-01 0.231D+00 0.424D+00-0.283D+00-0.538D+00-0.985D+00
 Coeff: 0.292D+00
 RMSDP=2.66D-07 MaxDP=1.57D-05

 Density matrix breaks symmetry, PCut= 1.00D-04
 Density matrix has no symmetry -- integrals replicated.
 Cycle  73  Pass 1  IDiag 1:
 RMSU=  1.57D-08    CP:  1.00D+00  1.65D+00 -2.03D+00 -3.00D+00  3.00D+00
                    CP:  3.00D+00  3.00D+00  3.00D+00  3.00D+00  3.00D+00
                    CP:  2.99D+00  2.05D+00  1.59D+00
 E=-0.224898113783301D+04 Delta-E=       -0.000000004255
 DIIS: error= 1.42D-05 at cycle  14.
 Coeff: 0.132D+00-0.236D+00 0.534D+00-0.273D+00 0.104D+00-0.362D+00
 Coeff:-0.953D-01 0.325D+00 0.573D+00-0.379D+00-0.701D+00-0.291D+01
 Coeff: 0.510D+01-0.281D+01
 RMSDP=7.92D-08 MaxDP=3.88D-06

 Density matrix breaks symmetry, PCut= 1.00D-04
 Density matrix has no symmetry -- integrals replicated.
 Cycle  74  Pass 1  IDiag 1:
 RMSU=  5.59D-08    CP:  1.00D+00  1.66D+00 -2.04D+00 -3.00D+00  3.00D+00
                    CP:  3.00D+00  3.00D+00  3.00D+00  3.00D+00  3.00D+00
                    CP:  3.00D+00  2.11D+00  1.32D+00  2.59D+00
 E=-0.224898113783352D+04 Delta-E=       -0.000000000507
 DIIS: error= 1.44D-05 at cycle  15.
 Coeff: 0.160D+00-0.201D+00 0.411D+00-0.181D+00 0.798D-01-0.384D+00
 Coeff:-0.674D-01 0.321D+00 0.533D+00-0.388D+00-0.716D+00-0.254D+01
 Coeff: 0.423D+01-0.136D+01-0.900D+00
 RMSDP=4.20D-08 MaxDP=2.06D-06

 Density matrix breaks symmetry, PCut= 1.00D-04
 Density matrix has no symmetry -- integrals replicated.
 Cycle  75  Pass 1  IDiag 1:
 RMSU=  1.19D-08    CP:  1.00D+00  1.67D+00 -2.04D+00 -3.00D+00  3.00D+00
                    CP:  3.00D+00  3.00D+00  3.00D+00  3.00D+00  3.00D+00
                    CP:  3.00D+00  2.13D+00  1.07D+00  3.00D+00  1.54D+00
 E=-0.224898113783360D+04 Delta-E=       -0.000000000081
 DIIS: error= 1.45D-05 at cycle  16.
 Coeff: 0.788D-01-0.165D+00-0.185D-01 0.340D+00-0.550D-01-0.544D+00
 Coeff:-0.374D-01 0.385D+00 0.653D+00 0.118D+00-0.871D+00 0.770D+00
 Coeff:-0.121D+02 0.185D+02 0.327D+01-0.113D+02
 RMSDP=3.75D-07 MaxDP=2.95D-05

 Density matrix breaks symmetry, PCut= 1.00D-04
 Density matrix has no symmetry -- integrals replicated.
 Cycle  76  Pass 1  IDiag 1:
 RMSU=  1.42D-07    CP:  1.00D+00  1.64D+00 -2.05D+00 -3.00D+00  3.00D+00
                    CP:  3.00D+00  3.00D+00  3.00D+00  3.00D+00  3.00D+00
                    CP:  3.00D+00  1.80D+00 -2.25D+00  3.00D+00  2.39D+00
                    CP:  3.00D+00
 E=-0.224898113782782D+04 Delta-E=        0.000000005781
 DIIS: error= 1.42D-05 at cycle  17.
 Coeff:-0.352D-02-0.332D+00 0.546D-01 0.460D+00-0.136D+00-0.213D+00
 Coeff:-0.423D+00 0.224D+00 0.695D+00 0.722D+00-0.329D+00 0.243D+01
 Coeff:-0.206D+02 0.237D+02 0.780D+01-0.129D+02-0.214D+01
 RMSDP=5.32D-07 MaxDP=4.29D-05

 Density matrix breaks symmetry, PCut= 1.00D-04
 Density matrix has no symmetry -- integrals replicated.
 Cycle  77  Pass 1  IDiag 1:
 RMSU=  3.23D-07    CP:  1.00D+00  1.57D+00 -2.08D+00 -3.00D+00  3.00D+00
                    CP:  3.00D+00  3.00D+00  3.00D+00  3.00D+00  3.00D+00
                    CP:  2.95D+00  1.29D+00 -3.00D+00  3.00D+00  2.84D+00
                    CP:  3.00D+00  2.39D+00
 E=-0.224898113781949D+04 Delta-E=        0.000000008331
 DIIS: error= 1.37D-05 at cycle  18.
 Coeff:-0.517D-01-0.231D+00-0.131D+00 0.456D+00-0.172D+00 0.445D+00
 Coeff:-0.728D+00-0.215D+00 0.176D+00 0.922D+00 0.789D+00 0.530D+01
 Coeff:-0.242D+02 0.175D+02 0.952D+01-0.593D+01-0.246D+01-0.200D+01
 RMSDP=7.53D-07 MaxDP=6.16D-05

 Density matrix breaks symmetry, PCut= 1.00D-04
 Density matrix has no symmetry -- integrals replicated.
 Cycle  78  Pass 1  IDiag 1:
 RMSU=  1.79D-07    CP:  1.00D+00  1.45D+00 -2.12D+00 -3.00D+00  3.00D+00
                    CP:  3.00D+00  3.00D+00  3.00D+00  3.00D+00  3.00D+00
                    CP:  2.64D+00  5.33D-01 -3.00D+00  3.00D+00  3.00D+00
                    CP:  3.00D+00  3.00D+00  2.60D+00
 E=-0.224898113780793D+04 Delta-E=        0.000000011551
 DIIS: error= 1.29D-05 at cycle  19.
 Coeff:-0.520D-01 0.462D+00-0.110D+01 0.566D+00-0.101D+00 0.758D+00
 Coeff:-0.211D+00-0.670D+00-0.920D+00 0.131D+00 0.164D+01 0.102D+02
 Coeff:-0.243D+02 0.766D+01 0.478D+01 0.393D+01 0.247D+00-0.155D+01
 Coeff:-0.242D+01
 RMSDP=1.10D-06 MaxDP=9.09D-05

 Density matrix breaks symmetry, PCut= 1.00D-04
 Density matrix has no symmetry -- integrals replicated.
 Cycle  79  Pass 1  IDiag 1:
 RMSU=  6.18D-07    CP:  1.00D+00  1.26D+00 -2.17D+00 -3.00D+00  3.00D+00
                    CP:  3.00D+00  3.00D+00  3.00D+00  3.00D+00  2.31D+00
                    CP:  2.21D+00 -4.43D-01 -3.00D+00  3.00D+00  3.00D+00
                    CP:  3.00D+00  3.00D+00  3.00D+00  2.59D+00
 E=-0.224898113779227D+04 Delta-E=        0.000000015670
 DIIS: error= 1.16D-05 at cycle  20.
 Coeff:-0.665D-01 0.881D+00-0.161D+01 0.615D+00 0.187D-01 0.268D+00
 Coeff: 0.657D+00-0.669D+00-0.138D+01-0.496D+00 0.138D+01 0.129D+02
 Coeff:-0.278D+02 0.129D+02-0.874D-01 0.173D+01 0.267D+01 0.906D+00
 Coeff:-0.197D+01-0.187D+01
 RMSDP=1.27D-06 MaxDP=1.05D-04

 Density matrix breaks symmetry, PCut= 1.00D-04
 Density matrix has no symmetry -- integrals replicated.
 Cycle  80  Pass 1  IDiag 1:
 Restarting incremental Fock formation.
 E=-0.224898113777666D+04 Delta-E=        0.000000015610
 DIIS: error= 1.35D-05 at cycle   1.
 RMSDP=3.68D-07 MaxDP=2.51D-05

 Density matrix breaks symmetry, PCut= 1.00D-04
 Density matrix has no symmetry -- integrals replicated.
 Cycle  81  Pass 1  IDiag 1:
 RMSU=  3.68D-07    CP:  1.00D+00
 E=-0.224898113777574D+04 Delta-E=        0.000000000916
 DIIS: error= 4.88D-05 at cycle   2.
 Coeff:-0.862D+00-0.138D+00
 RMSDP=2.07D-07 MaxDP=1.26D-05

 Density matrix breaks symmetry, PCut= 1.00D-04
 Density matrix has no symmetry -- integrals replicated.
[...]
 8185,-0.0001361,-0.1922597,0.000042,-0.2356575,0.0000401,0.0010245,0.0
 000534,-0.7969073,-0.2355342,-0.0000197,0.0000563,-0.0003159,-1.037000
 9,-0.1925166,-0.0002729,0.0012883,-0.7969779,-0.2355547,0.0000376,0.00
 00296,0.0002209,-1.0366699,0.1926468,-0.0003622,-0.0013263,-0.7970132,
 -1.0365631,0.0001724,0.1926761,0.0000105,-0.2356879,-0.0001101,-0.0013
 757,0.0000387,-0.7964716,-1.0371009,-0.0001319,-0.192305,0.0000043,-0.
 2356725,0.0000735,0.0012284,-0.0000205,-0.7963292,0.9829396,0.0001364,
 -0.0006578,-0.0000342,0.1666352,0.0000379,0.0004538,-0.0000403,1.27714
 31,0.9839174,-0.0000033,0.0000027,-0.0000326,0.1664795,-0.0001319,0.00
 04122,0.0002445,1.2764884,0.1665274,-0.0000206,0.0000682,-0.0008433,0.
 9833706,-0.0003281,0.0006617,0.0001898,1.2778247,0.1665794,-0.0000557,
 -0.0001677,0.0007287,0.9832994,0.0008062,0.0004961,0.0001147,1.2773554
 ,-0.1172267,-0.0001251,0.0003406,-0.0000046,0.1021994,-0.000093,-0.000
 0367,-0.0000121,0.0962435,-0.1179858,-0.0000244,0.0001401,-0.0000234,0
 .1022713,0.0000237,-0.0000083,-0.000073,0.0962636,0.1022093,-0.0000139
 ,-0.0000491,0.000607,-0.1176188,-0.0001059,-0.0000362,-0.000049,0.0962
 535,0.1021186,0.0000837,0.0000212,-0.0005131,-0.1175376,-0.0004844,-0.
 000039,-0.0000226,0.0962987\Polar=112.9741256,-0.0041891,112.9528301,-
 0.0024583,-0.0176764,91.4336764\PG=C02 [C2(Cr1Cr1),X(C4H4O8)]\NImag=0\
 \0.27412598,-0.00000064,0.27412610,0.00000533,0.00000355,0.43024558,-0
 .04735145,-0.00000247,0.00000010,0.27414312,0.00000068,-0.04735500,-0.
 00000788,-0.00000217,0.27414071,0.00000293,0.00000585,-0.30255655,0.00
 000194,-0.00000184,0.43025483,0.00026918,0.00000142,0.00000816,-0.0355
 0484,-0.00000130,-0.00000269,0.06099090,0.00000615,-0.01122530,0.01739
 762,0.00000232,-0.04070629,0.01072673,-0.00000009,0.27060612,0.0000051
 8,-0.01275076,-0.00689058,-0.00000149,0.01311966,-0.02541429,-0.000002
 71,0.18138662,0.52630488,0.00026941,0.00000046,0.00000345,-0.03550409,
 -0.00000126,-0.00001345,0.00493309,-0.00000726,-0.00000375,0.06099004,
 -0.00000799,-0.01124123,-0.01738531,0.00000096,-0.04070091,-0.01072326
 ,-0.00000191,-0.01020195,0.00215458,0.00000415,0.27059173,0.00000371,0
 .01276825,-0.00690569,0.00000107,-0.01311641,-0.02542995,-0.00000009,-
 0.00217466,0.00101500,0.00000036,-0.18135988,0.52626387,-0.01124205,-0
 .00000886,-0.01740608,-0.04070408,0.00000468,-0.01072122,-0.00547505,-
 0.00553653,-0.00106803,-0.00546676,0.00553106,-0.00104557,0.27060845,-
 0.00000078,0.00026922,0.00000797,0.00000098,-0.03550363,-0.00000531,-0
 .01038026,-0.00547273,-0.00280470,0.01038044,-0.00547551,0.00280446,0.
 00000038,0.06099050,0.01276216,0.00000916,-0.00691505,-0.01312089,0.00
 000054,-0.02541542,0.00280577,0.00104940,0.00396269,0.00280196,-0.0010
 4803,0.00394596,-0.18136976,-0.00000318,0.52627705,-0.01122964,0.00000
 728,0.01739041,-0.04070243,-0.00000446,0.01073514,-0.00547073,0.005538
 59,0.00106773,-0.00547963,-0.00553056,0.00104721,-0.01021175,0.0000020
 7,-0.00216834,0.27061217,0.00000071,0.00026846,-0.00000207,0.,-0.03550
 293,-0.00000628,0.01038017,-0.00548091,-0.00280905,-0.01038016,-0.0054
 6754,0.00279959,0.00000675,0.00493402,-0.00000431,-0.00000476,0.060990
 44,-0.01275637,0.00000763,-0.00689100,0.01311957,-0.00000365,-0.025422
 37,-0.00280232,0.00106395,0.00397093,-0.00280732,-0.00105606,0.0039537
 5,0.00215630,0.00000066,0.00101478,0.18138259,-0.00000156,0.52629549,-
 0.03550358,0.00000112,0.00000774,0.00026951,-0.00000123,-0.00000498,0.
 00280715,0.00000088,0.00000170,0.02808805,-0.00000172,0.00000009,0.001
 27421,0.00069875,-0.00211385,0.00127700,-0.00069904,0.00211837,0.06099
 381,0.00000292,-0.04070007,0.01071794,0.00000025,-0.01125116,0.0174281
 3,0.00000385,0.00018953,-0.00027199,-0.00000532,0.03788476,-0.01576724
 ,0.00413408,0.00127644,0.00073106,-0.00413538,0.00126982,0.00074306,0.
 00000282,0.27063302,0.00000101,0.01313005,-0.02542762,-0.00000745,-0.0
 1275503,-0.00687601,0.00000350,-0.00027251,-0.00247754,-0.00000256,0.0
 1574865,-0.12043018,-0.00074778,0.00211677,0.00272632,0.00074696,0.002
 11175,0.00272664,0.00000399,0.18136269,0.52626659,-0.03550316,0.000000
 68,0.00000700,0.00026926,-0.00000024,-0.00000964,0.02808847,-0.0000029
 8,-0.00000107,0.00280694,0.00000270,-0.00000244,0.00127758,-0.00069914
 ,-0.00211659,0.00127269,0.00069859,0.00211455,0.00493330,-0.00000049,0
 .00000030,0.06099401,-0.00000332,-0.04071717,-0.01071795,0.00000458,-0
 .01124016,-0.01742581,-0.00000539,0.03787814,0.01574821,0.00000277,0.0
 0017790,0.00029542,-0.00413532,0.00127297,-0.00073275,0.00413646,0.001
 28035,-0.00073831,-0.00000475,-0.01023105,0.00214106,0.00000028,0.2706
 3288,-0.00000054,-0.01310919,-0.02543518,-0.00000403,0.01275269,-0.006
 88214,0.00000441,-0.01575723,-0.12042807,-0.00000011,0.00029145,-0.002
 51105,-0.00073547,-0.00211473,0.00271037,0.00073552,-0.00212080,0.0027
 1873,0.00000502,-0.00215453,0.00103118,0.00000030,-0.18135080,0.526239
 41,-0.04071321,-0.00000769,-0.01073156,-0.01124571,0.00000495,-0.01742
 174,0.00127157,0.00413152,-0.00075241,0.00127980,-0.00413983,-0.000730
 94,0.00019632,-0.00000122,0.00028400,0.03787340,0.00000594,0.01575082,
 -0.00547643,-0.00556170,-0.00108148,-0.00547280,0.00556088,-0.00107002
 ,0.27064682,-0.00000020,-0.03550309,0.00000706,0.00000006,0.00027099,-
 0.00000588,0.00069921,0.00127527,0.00211545,-0.00069834,0.00127396,-0.
 00211674,-0.00000092,0.00280677,0.,0.00000140,0.02808904,-0.00000124,-
 0.01038075,-0.00547296,-0.00280365,0.01038091,-0.00547482,0.00280370,-
 0.00000090,0.06099345,-0.01312051,0.00000883,-0.02544558,0.01275030,-0
 .00000030,-0.00688473,-0.00211320,0.00072896,0.00272149,-0.00211765,-0
 .00072411,0.00270668,0.00029145,0.00000056,-0.00250377,-0.01576368,-0.
 00000541,-0.12043778,0.00280730,0.00106235,0.00397386,0.00280385,-0.00
 106159,0.00395992,-0.18135170,0.00000089,0.52624501,-0.04070552,0.0000
 0949,0.01070317,-0.01124815,-0.00000302,0.01742679,0.00127915,-0.00414
 435,0.00074373,0.00127133,0.00415412,0.00072089,0.03788506,0.00000154,
 -0.01577034,0.00018090,-0.00000620,-0.00028584,-0.00546973,0.00554621,
 0.00107384,-0.00547437,-0.00554531,0.00105881,-0.01022666,-0.00000009,
 -0.00216333,0.27061534,0.00000091,-0.03550424,-0.00000107,0.00000053,0
 .00027014,-0.00000789,-0.00069910,0.00126744,0.00211027,0.00069895,0.0
 0128089,-0.00212006,0.00000708,0.02808942,-0.00000437,-0.00000634,0.00
 280725,-0.00000430,0.01038068,-0.00548025,-0.00281008,-0.01038117,-0.0
 0546803,0.00279909,0.00000612,0.00493378,-0.00000556,-0.00000701,0.060
 99432,0.01312227,0.00001140,-0.02544474,-0.01275676,0.00000065,-0.0069
 1295,0.00211744,0.00071005,0.00271024,0.00211310,-0.00070573,0.0026891
 1,0.01578469,-0.00000055,-0.12045634,-0.00030905,-0.00000657,-0.002513
 34,-0.00280133,0.00104463,0.00395979,-0.00280559,-0.00104233,0.0039461
 1,0.00217295,-0.00000149,0.00100578,0.18132404,-0.00000735,0.52620883,
 -0.03937774,0.00000615,0.00856784,-0.03938315,-0.00000219,-0.00853150,
 0.00196663,-0.00206511,0.00016099,0.00196712,0.00206608,0.00016345,0.0
 0151813,0.00000014,0.00074580,-0.22085552,-0.00000218,-0.18906306,0.00
 196669,0.00210306,-0.00014060,0.00196671,-0.00210438,-0.00014125,-0.22
 088208,-0.00000030,0.18905656,0.00155643,-0.00000118,-0.00072125,0.828
 49844,0.00000050,0.00633039,-0.00000436,0.00000027,0.00632864,0.000003
 98,-0.00045154,-0.00075816,-0.00016656,0.00045066,-0.00075884,0.000166
 82,0.00000053,-0.00057392,-0.00000147,-0.00000228,-0.06836657,-0.00000
 226,0.00045119,-0.00075995,-0.00016728,-0.00045131,-0.00075893,0.00016
 780,-0.00000051,-0.06837003,-0.00000021,0.00000018,-0.00057405,0.00000
 103,0.00000481,0.18796513,0.04972656,-0.00001916,0.00147075,-0.0497302
 5,0.00000681,0.00143554,0.00524747,-0.00017979,-0.00401858,0.00526112,
 0.00016270,-0.00397737,0.00223809,-0.00000204,0.00339960,-0.15175404,0
 .00000969,-0.37281706,-0.00526003,-0.00019608,-0.00402908,-0.00525115,
 0.00019028,-0.00400281,0.15175196,-0.00000031,-0.37275862,-0.00223575,
 0.00001224,0.00342699,-0.00000344,0.00000281,0.79203223,-0.03937767,-0
 .00000091,-0.00853840,-0.03938215,-0.00000061,0.00855564,0.00196465,0.
 00209753,-0.00014259,0.00196381,-0.00210177,-0.00013525,-0.22088582,-0
 .00000078,0.18908700,0.00155326,0.00000120,-0.00072865,0.00196339,-0.0
 0207688,0.00015786,0.00196506,0.00207111,0.00015975,0.00152774,0.00000
 189,0.00075046,-0.22084765,-0.00000023,-0.18903490,-0.00077640,-0.0000
 0217,-0.00002757,0.82851544,0.00000161,0.00632930,0.00000355,0.0000002
 7,0.00632872,0.00000704,0.00045112,-0.00075140,-0.00016102,-0.00045246
 ,-0.00076634,0.00017131,-0.00000851,-0.06836701,0.00000604,0.00000638,
 -0.00057280,0.00000505,-0.00045171,-0.00075357,-0.00016274,0.00045106,
 -0.00076610,0.00017133,-0.00000717,-0.00057224,0.00000437,0.00000683,-
 0.06837108,0.00000689,0.00000110,0.00018749,-0.00001258,0.00000073,0.1
 8796599,-0.04973914,-0.00002373,0.00149574,0.04973648,0.00000099,0.001
 46039,-0.00525804,-0.00014382,-0.00399940,-0.00524567,0.00013418,-0.00
 395123,0.15171779,0.00000258,-0.37277355,-0.00220530,0.00001329,0.0034
 0477,0.00524805,-0.00016331,-0.00401446,0.00525647,0.00016227,-0.00397
 921,0.00223245,0.00000125,0.00340979,-0.15169475,0.00001471,-0.3726947
 4,-0.00003461,0.00000056,-0.00275421,-0.00005742,-0.00001621,0.7919059
 2,0.00632887,-0.00000016,-0.00001727,0.00632918,0.00000070,0.00001056,
 -0.06836587,0.00000122,0.00000320,-0.00057191,0.00000280,-0.00000086,-
 0.00075754,0.00045141,0.00016557,-0.00076172,-0.00045145,-0.00017044,-
 0.00057197,-0.00000579,-0.00000443,-0.06836953,0.00000732,-0.00000577,
 -0.00075388,-0.00045202,0.00016465,-0.00076539,0.00045127,-0.00017050,
 -0.00088369,0.00130316,0.00000800,-0.00087991,-0.00130144,0.00000668,0
 .18796302,-0.00000528,-0.03937854,0.00854627,-0.00000598,-0.03938671,-
 0.00853727,0.00000747,-0.22086536,-0.18907371,0.00000666,0.00153811,0.
 00073552,0.00207968,0.00196967,0.00014223,-0.00208415,0.00196872,0.000
 14844,0.00000628,0.00153601,-0.00074081,0.00000525,-0.22085864,0.18903
 316,-0.00208937,0.00196757,-0.00015281,0.00208002,0.00196834,-0.000148
 50,0.00297994,-0.00088757,0.00000125,-0.00299097,-0.00088938,0.0000055
 0,-0.00001486,0.82847065,-0.00000645,0.04970848,0.00145907,0.00000488,
 -0.04972854,0.00142417,-0.00000385,-0.15176452,-0.37283921,0.00000677,
 0.00223462,0.00340862,0.00019194,0.00525242,-0.00399307,-0.00019195,0.
 00526599,-0.00401387,-0.00000769,-0.00226515,0.00334690,0.00000194,0.1
 5175214,-0.37276753,0.00021665,-0.00525292,-0.00400345,-0.00018987,-0.
 00524011,-0.00396843,-0.00003046,-0.00000125,0.00540527,-0.00002451,-0
 .00001398,0.00534648,0.00000455,0.00003743,0.79207219,0.00632928,-0.00
 000124,-0.00000817,0.00632829,0.00000079,0.00001699,-0.00057208,0.0000
 0836,0.00000611,-0.06836552,-0.00000431,0.00000184,-0.00076672,-0.0004
 5068,0.00017203,-0.00075250,0.00045175,-0.00016511,-0.06836902,0.00000
 371,0.00000179,-0.00057244,-0.00000236,-0.00000058,-0.00076301,0.00045
 116,0.00017082,-0.00075637,-0.00045102,-0.00016477,-0.00088292,-0.0013
 0190,-0.00000833,-0.00087896,0.00130288,-0.00001016,0.00018452,-0.0000
 1169,-0.00000853,0.18796241,0.00000321,-0.03938401,-0.00856395,0.00000
 314,-0.03936795,0.00849863,-0.00000505,0.00149786,-0.00075982,-0.00000
 020,-0.22083263,0.18903660,-0.00204382,0.00196388,-0.00017383,0.002048
 13,0.00196543,-0.00017798,-0.00000345,-0.22089272,-0.18905357,-0.00000
 413,0.00157927,0.00070605,0.00212477,0.00196427,0.00012425,-0.00212289
 ,0.00196636,0.00011597,-0.00297476,-0.00088172,0.00007265,0.00300190,-
 0.00088122,0.00007630,0.00000656,-0.00077812,0.00007543,0.00000187,0.8
 2846736,-0.00000760,-0.04975296,0.00146943,0.00000527,0.04973299,0.001
 43392,-0.00000493,-0.00223856,0.00336366,0.00000542,0.15174119,-0.3727
 8659,0.00018221,-0.00525495,-0.00399127,-0.00018145,-0.00524232,-0.004
 00584,-0.00000531,-0.15174384,-0.37279691,0.00000276,0.00225185,0.0033
 8710,0.00020552,0.00525414,-0.00400085,-0.00017965,0.00526637,-0.00396
 217,-0.00003289,0.00000021,0.00538875,-0.00002784,-0.00001235,0.005333
 02,0.00000754,0.00000666,-0.00267166,-0.00000588,0.00003791,0.79204175
 ,0.00198696,-0.00000441,0.00076646,0.00198870,0.00000300,-0.00078127,-
 0.00002494,0.00029490,-0.00002313,-0.00002548,-0.00029600,-0.00002676,
 -0.00043951,-0.00000039,0.00006312,-0.01661473,0.00000038,-0.00791087,
 -0.00002505,-0.00030907,0.00002091,-0.00002491,0.00030867,0.00001996,-
 0.01660050,-0.00000012,0.00790426,-0.00045295,0.00000090,-0.00006994,-
 0.31578485,-0.00000269,0.00000845,-0.00010600,-0.00000074,0.00001069,-
 0.00004538,-0.00020066,0.00000747,-0.00004574,0.00019721,0.00001023,0.
 34632207,-0.00000066,0.00485182,0.00000169,-0.00000056,0.00485116,0.00
 000596,-0.00069153,-0.00010684,0.00006159,0.00069250,-0.00011588,-0.00
 005478,-0.00000588,-0.00108487,0.00000542,0.00000484,0.01295561,0.0000
 0325,0.00069230,-0.00010647,0.00006087,-0.00069145,-0.00011616,-0.0000
 5478,-0.00000437,0.01295519,0.00000350,0.00000524,-0.00108493,0.000004
 50,-0.00000348,-0.05816960,-0.00000912,0.00000130,0.00013070,-0.000012
 21,0.00011618,-0.00025263,-0.00000915,-0.00011763,-0.00025575,-0.00000
 865,0.00000333,0.02529225,-0.00237101,0.00000087,-0.00105762,0.0023710
 3,-0.00000038,-0.00105247,-0.00005870,-0.00001291,0.00003901,-0.000059
 21,0.00001396,0.00003663,-0.00064551,-0.00000007,-0.00013326,-0.041150
 75,-0.00000076,-0.00792935,0.00005936,-0.00001193,0.00003989,0.0000588
 8,0.00001248,0.00003796,0.04114878,-0.00000005,-0.00793062,0.00064526,
 -0.00000045,-0.00013474,-0.00000012,-0.00000002,-0.04809629,0.00000185
 ,0.00000080,-0.00016616,-0.00000058,-0.00000071,0.00003153,0.00000033,
 -0.00000469,0.00003218,0.00000190,0.00000073,0.06621509,0.00198851,0.0
 0000188,-0.00077458,0.00198979,0.00000015,0.00075255,-0.00002503,-0.00
 032032,0.00001120,-0.00002433,0.00032146,0.00000465,-0.01659022,-0.000
 00132,0.00789243,-0.00046414,-0.00000131,-0.00007172,-0.00002413,0.000
 29365,-0.00002767,-0.00002490,-0.00028976,-0.00002903,-0.00043486,-0.0
 0000121,0.00004965,-0.01662068,-0.00000045,-0.00791760,-0.00010628,0.0
 0000164,0.00002904,-0.31580308,0.00000026,0.00003377,-0.00004477,0.000
 21898,0.00002616,-0.00004535,-0.00022499,0.00002869,-0.00006906,-0.000
 00067,-0.00000173,0.34633625,-0.00000092,0.00485294,-0.00000764,-0.000
 00174,0.00485231,0.00000432,0.00069232,-0.00011288,0.00005759,-0.00069
 041,-0.00010826,-0.00006019,0.00000018,0.01295585,0.00000158,-0.000001
 57,-0.00108652,-0.00000252,-0.00069074,-0.00011184,0.00005778,0.000692
 31,-0.00010851,-0.00005963,0.00000211,-0.00108659,-0.00000054,-0.00000
 178,0.01295560,-0.00000079,-0.00000132,0.00013287,0.00000432,0.0000012
 3,-0.05816833,0.00000030,-0.00011802,-0.00025319,0.00000330,0.00011530
 ,-0.00025669,0.00000334,0.00000114,0.00029837,-0.00000032,0.00000072,0
 .02528904,0.00237182,0.00000055,-0.00105572,-0.00237039,-0.00000022,-0
 .00105405,0.00005908,-0.00001298,0.00003964,0.00005839,0.00001337,0.00
 003698,0.04115063,0.00000023,-0.00793006,0.00064573,-0.00000040,-0.000
 13161,-0.00005897,-0.00001176,0.00004027,-0.00005928,0.00001164,0.0000
 3838,-0.00064740,0.00000007,-0.00013246,-0.04114987,-0.00000061,-0.007
 93208,0.00000189,-0.00000005,-0.00017059,0.00000259,0.00000081,-0.0480
 9397,-0.00000008,-0.00000023,0.00003029,0.00000080,-0.00000467,0.00003
 119,-0.00000079,0.00000053,0.00006668,-0.00000371,-0.00000023,0.066215
 34,0.00485327,-0.00000211,0.00001258,0.00485432,0.00000031,-0.00000719
 ,0.01295451,0.00000112,0.00000007,-0.00108699,-0.00000360,0.00000252,-
 0.00011372,0.00069159,-0.00005700,-0.00010967,-0.00069162,0.00006249,-
 0.00108742,0.00000517,0.00000286,0.01295444,-0.00000461,0.00000427,-0.
 00011666,-0.00069121,-0.00005693,-0.00010660,0.00069210,0.00006180,-0.
 00025336,0.00011612,-0.00000729,-0.00025855,-0.00011736,-0.00000644,-0
 .05816734,0.00001073,-0.00000548,0.00013366,-0.00000396,-0.00000778,-0
 .00001978,0.00019154,0.00000063,-0.00001846,-0.00019022,0.00000019,0.0
 2529028,0.00000300,0.00198803,0.00077334,0.00000166,0.00199233,-0.0007
 6628,-0.00000215,-0.01660434,-0.00790231,-0.00000293,-0.00045311,0.000
 06776,-0.00030903,-0.00002725,-0.00000810,0.00031082,-0.00002648,-0.00
 001726,-0.00000295,-0.00043752,-0.00005731,-0.00000262,-0.01661626,0.0
 0791760,0.00029898,-0.00002625,0.00002717,-0.00029418,-0.00002585,0.00
 002263,-0.00020610,-0.00004098,-0.00001168,0.00021669,-0.00003913,-0.0
 0001750,0.00000655,-0.31576875,-0.00001950,0.00000582,-0.00010443,-0.0
 0001486,0.00004020,-0.00002197,0.00000111,-0.00005260,-0.00002303,0.00
 000127,-0.00000646,0.34631058,0.00000038,-0.00237042,-0.00105722,0.000
 00061,0.00237031,-0.00105321,0.00000049,-0.04115066,-0.00792840,-0.000
 00036,-0.00064484,-0.00013344,0.00001257,-0.00005902,0.00003765,-0.000
 01268,-0.00005938,0.00003904,0.00000019,0.00064637,-0.00013098,-0.0000
 0026,0.04114929,-0.00793011,0.00001145,0.00005894,0.00003790,-0.000012
 98,0.00005860,0.00003673,0.00000121,0.00000002,0.00003167,0.00000071,0
 .00000074,0.00003461,-0.00000035,-0.00000196,-0.04809790,0.00000043,-0
 .00000356,-0.00017000,-0.00000032,0.00000046,0.00000085,-0.00000090,-0
 .00000014,0.00000095,0.00000019,0.00000323,0.06621531,0.00485256,0.000
 00003,0.00000381,0.00485387,0.00000121,-0.00000886,-0.00108678,-0.0000
 0596,-0.00000477,0.01295512,0.00000437,-0.00000388,-0.00010651,-0.0006
 9274,-0.00006308,-0.00011695,0.00069123,0.00005700,0.01295420,-0.00000
 107,-0.00000103,-0.00108635,0.00000314,-0.00000122,-0.00010984,0.00069
 143,-0.00006230,-0.00011411,-0.00069204,0.00005541,-0.00025421,-0.0001
 1667,0.00000715,-0.00025722,0.00011716,0.00000917,0.00013332,0.0000079
 6,0.00000843,-0.05816751,-0.00000352,0.00000567,-0.00001882,-0.0001910
 0,-0.00000041,-0.00001925,0.00019142,-0.00000062,0.00029807,-0.0000046
 8,-0.00000038,0.02529040,0.00000011,0.00199237,-0.00076876,-0.00000211
 ,0.00197971,0.00079921,0.00000279,-0.00042818,-0.00005406,0.00000177,-
 0.01662512,0.00792425,0.00028446,-0.00002384,0.00003063,-0.00028647,-0
 .00002540,0.00003314,0.00000232,-0.01659202,-0.00790668,0.00000175,-0.
 00046565,0.00007883,-0.00032250,-0.00002431,-0.00001033,0.00032120,-0.
 00002510,-0.00000444,0.00019971,-0.00004418,-0.00003203,-0.00021926,-0
 .00004359,-0.00003516,-0.00000343,-0.00010023,-0.00003467,-0.00000083,
 -0.31576925,-0.00002616,-0.00003566,-0.00002002,0.00000234,0.00005391,
 -0.00002114,0.00000269,0.00000246,-0.00007557,0.00000203,-0.00000026,0
 .34631157,0.00000027,0.00237162,-0.00105800,0.,-0.00237040,-0.00105469
 ,0.00000022,0.00064432,-0.00013144,-0.00000050,0.04115253,-0.00793110,
 0.00001373,0.00005891,0.00003739,-0.00001408,0.00005860,0.00003809,0.0
 0000035,-0.04115040,-0.00792865,-0.00000004,-0.00064512,-0.00013303,0.
 00001269,-0.00005921,0.00003746,-0.00001415,-0.00005944,0.00003598,0.0
 0000146,0.00000022,0.00003379,0.00000130,0.00000096,0.00003617,-0.0000
 0045,-0.00000047,-0.00016944,0.00000040,-0.00000170,-0.04809571,-0.000
 00037,0.00000018,0.00000069,-0.00000124,-0.00000053,0.00000082,0.00000
 051,0.00000073,0.00006658,-0.00000009,-0.00000082,0.06621508\\0.,0.,-0
 .00001548,0.,0.,0.00005160,0.00000056,-0.00001456,-0.00004001,-0.00000
 055,0.00001456,-0.00004001,0.00001415,0.00000030,-0.00003907,-0.000014
 15,-0.00000030,-0.00003906,-0.00000034,0.00002882,0.00004259,0.0000003
 4,-0.00002883,0.00004260,-0.00002885,-0.00000008,0.00004231,0.00002886
 ,0.00000008,0.00004232,0.00005839,-0.00000022,-0.00001237,-0.00005840,
 0.00000022,-0.00001237,-0.00000050,0.00005877,-0.00001167,0.00000050,-
 0.00005876,-0.00001166,-0.00001009,0.00000035,0.00000006,0.00001009,-0
 .00000035,0.00000006,-0.00000013,-0.00001007,0.00000008,0.00000013,0.0
 0001007,0.00000008\\\@


 ALL OUR THINKING ABOUT NATURE MUST NECESSARILY MOVE IN CIRCLES OR SPIRALS;
 FOR WE CAN ONLY UNDERSTAND NATURE IF WE THINK ABOUT HER, AND WE CAN ONLY
 THINK BECAUSE OUR BRAIN IS BUILT IN ACCORDANCE WITH NATURE'S LAWS.

                                             -- TIMOTHY FERRIS, "GALAXIES"
 File lengths (MBytes):  RWF=  295 Int=    0 D2E=    0 Chk=   15 Scr=    1
 Normal termination of Gaussian 98.
