Job 3-pyrrole started on spf1s4.itsp.nwu.edu at Tue May 22 10:13:39 2001
  +--------------------------------------------------------------------+
  |  Jaguar version 4.0, release  20                                   |
  |                                                                    |
  |  Copyright 1991-2000 Schrodinger, Inc.                             |
  |  All Rights Reserved.                                              |
  |                                                                    |
  |  Use of this program should be acknowledged in publications as:    |
  |  Jaguar 4.0, Schrodinger, Inc., Portland, Oregon, 2000.            |
  +--------------------------------------------------------------------+
   
  start of program pre
  Job name: 3-pyrrole
  Executables used: /usr/local/apps/jaguar.v40020/v4.0/aix43-pwr3
  Temporary files : /scr01/rhu156/3-pyrrole
  
  Input file comments:
    This JAGUAR input file generated by Babel 1.3
  
  basis set:             6-31g*          
  net molecular charge:    0
  multiplicity:            1
  
  number of basis functions....  247
  
 Input geometry:
                                angstroms
  atom            x                 y                 z
  N1        3.6061000000       .7419000000       .0103000000 
  C2        2.4660000000      -.0691000000      -.0030000000 
  C3        2.8871000000     -1.4151000000      -.0147000000 
  C4        4.3175000000     -1.4122000000      -.0085000000 
  C5        4.7316000000      -.0714000000       .0070000000 
  H6        2.2466000000     -2.2904000000      -.0268000000 
  H7        4.9631000000     -2.2845000000      -.0147000000 
  H8        5.7355000000       .3525000000       .0160000000 
  H9       -1.3563000000      2.6924000000      -.0122000000 
  N10       -.0049000000      -.3446000000      -.0003000000 
  C11      -1.1385000000       .4705000000      -.0030000000 
  C12       -.7154000000      1.8172000000      -.0084000000 
  C13        .7110000000      1.8155000000      -.0085000000 
  C14       1.1308000000       .4676000000      -.0038000000 
  H15       1.3536000000      2.6894000000      -.0119000000 
  H16      -5.7433000000       .3689000000       .0007000000 
  H17      -4.9784000000     -2.2707000000       .0123000000 
  H18      -2.2621000000     -2.2844000000       .0105000000 
  N19      -3.6130000000       .7519000000      -.0026000000 
  C20      -4.7407000000      -.0581000000       .0020000000 
  C21      -4.3305000000     -1.4002000000       .0079000000 
  C22      -2.9001000000     -1.4072000000       .0068000000 
  C23      -2.4752000000      -.0624000000       .0003000000 
  H24      -3.5993000000      1.7372000000      -.0068000000 
  H25       -.0062000000     -1.3310000000       .0040000000 
  H26       3.5952000000      1.7271000000       .0196000000 
   
 
Number of optimization coordinates:    92
Number of independent coordinates:     92
Number of non-redundant coordinates:   78
Number of constrained coordinates:      0
 
Number of geometric degrees of freedom:    72
Maximum geometric degrees of freedom:      72
 " " " " " excluding dummy atoms:          72
 
  Molecular weight:     197.10 amu
   
  Stoichiometry: C12N3H11
  Molecular Point Group: C1      
  Point Group used: C1
 
  bond lengths (angstroms):
 
  N1   C2  :   1.399188       N1   C5  :   1.388603
  N1   H26 :    .985304       C2   C3  :   1.410382
  C2   C14 :   1.439030       C3   C4  :   1.430416
  C3   H6  :   1.084683       C4   C5  :   1.403376
  C4   H7  :   1.085240       C5   H8  :   1.089765
  H9   C12 :   1.084778       N10  C11 :   1.396225
  N10  C14 :   1.396243       N10  H25 :    .986410
  C11  C12 :   1.411610       C11  C23 :   1.439014
  C12  C13 :   1.426401       C13  C14 :   1.411768
  C13  H15 :   1.084734       H16  C20 :   1.089742
  H17  C21 :   1.085156       H18  C22 :   1.084683
  N19  C20 :   1.388463       N19  C23 :   1.399172
  N19  H24 :    .985404       C20  C21 :   1.403400
  C21  C22 :   1.430418       C22  C23 :   1.410344
 
  bond angles
 
  C5   N1   C2  : 108.719561       H26  N1   C2  : 124.794614
  H26  N1   C5  : 126.485805       C3   C2   N1  : 108.056629
  C14  C2   N1  : 122.674622       C14  C2   C3  : 129.268748
  C4   C3   C2  : 107.253345       H6   C3   C2  : 126.435293
  H6   C3   C4  : 126.311351       C5   C4   C3  : 107.280846
  H7   C4   C3  : 126.386590       H7   C4   C5  : 126.332564
  C4   C5   N1  : 108.689618       H8   C5   N1  : 121.253008
  H8   C5   C4  : 130.057372       C14  N10  C11 : 108.711495
  H25  N10  C11 : 125.642137       H25  N10  C14 : 125.646355
  C12  C11  N10 : 108.276358       C23  C11  N10 : 122.546407
  C23  C11  C12 : 129.177225       C11  C12  H9  : 126.344015
  C13  C12  H9  : 126.282946       C13  C12  C11 : 107.373035
  C14  C13  C12 : 107.367239       H15  C13  C12 : 126.259476
  H15  C13  C14 : 126.373283       N10  C14  C2  : 122.530927
  C13  C14  C2  : 129.197202       C13  C14  N10 : 108.271866
  C23  N19  C20 : 108.720134       H24  N19  C20 : 126.485786
  H24  N19  C23 : 124.794075       N19  C20  H16 : 121.241935
  C21  C20  H16 : 130.063985       C21  C20  N19 : 108.694080
  C20  C21  H17 : 126.345470       C22  C21  H17 : 126.379227
  C22  C21  C20 : 107.275302       C21  C22  H18 : 126.308871
  C23  C22  H18 : 126.437162       C23  C22  C21 : 107.253966
  N19  C23  C11 : 122.673378       C22  C23  C11 : 129.270103
  C22  C23  N19 : 108.056519
 
  torsional angles
 
  N1   C2   C3   C4  :   -.010223       N1   C2   C3   H6  :-179.974312
  N1   C2   C14  N10 :-179.182730       N1   C2   C14  C13 :    .846758
  N1   C5   C4   C3  :   -.007114       N1   C5   C4   H7  : 179.988753
  C2   N1   C5   C4  :    .000801       C2   N1   C5   H8  :-179.985040
  C2   C3   C4   C5  :    .010650       C2   C3   C4   H7  :-179.985215
  C2   C14  N10  C11 :-179.963761       C2   C14  N10  H25 :    .074967
  C2   C14  C13  C12 : 179.949412       C2   C14  C13  H15 :   -.031902
  C3   C2   N1   C5  :    .005951       C3   C2   N1   H26 : 179.957722
  C3   C2   C14  N10 :    .830666       C3   C2   C14  C13 :-179.139846
  C3   C4   C5   H8  : 179.977071       C4   C3   C2   C14 : 179.977917
  C4   C5   N1   H26 :-179.949939       C5   N1   C2   C14 :-179.983140
  C5   C4   C3   H6  : 179.974796       H6   C3   C2   C14 :    .013827
  H6   C3   C4   H7  :   -.021068       H7   C4   C5   H8  :   -.027061
  H8   C5   N1   H26 :    .064220       H9   C12  C11  N10 : 179.956380
  H9   C12  C11  C23 :   -.078800       H9   C12  C13  C14 :-179.949180
  H9   C12  C13  H15 :    .032162       N10  C11  C12  C13 :   -.020068
  N10  C11  C23  N19 :-179.989951       N10  C11  C23  C22 :    .018369
  N10  C14  C13  C12 :   -.024406       N10  C14  C13  H15 : 179.994279
  C11  N10  C14  C13 :    .012173       C11  C12  C13  C14 :    .027286
  C11  C12  C13  H15 :-179.991372       C11  C23  N19  C20 :-179.991586
  C11  C23  N19  H24 :   -.017397       C11  C23  C22  H18 :    .001801
  C11  C23  C22  C21 : 179.989693       C12  C11  N10  C14 :    .005065
  C12  C11  N10  H25 : 179.966339       C12  C11  C23  N19 :    .049678
  C12  C11  C23  C22 :-179.942002       C13  C12  C11  C23 : 179.944752
  C13  C14  N10  H25 :-179.949099       C14  C2   N1   H26 :   -.031369
  C14  N10  C11  C23 :-179.962583       H16  C20  N19  C23 :-179.994619
  H16  C20  N19  H24 :    .031744       H16  C20  C21  H17 :    .002074
  H16  C20  C21  C22 : 179.992216       H17  C21  C20  N19 :-179.992305
  H17  C21  C22  H18 :   -.018817       H17  C21  C22  C23 : 179.993271
  H18  C22  C21  C20 : 179.991046       H18  C22  C23  N19 :-179.990832
  N19  C20  C21  C22 :   -.002163       N19  C23  C22  C21 :   -.002940
  C20  N19  C23  C22 :    .001639       C20  C21  C22  C23 :    .003134
  C21  C20  N19  C23 :    .000349       C21  C20  N19  H24 :-179.973288
  C22  C23  N19  H24 : 179.975828       C23  C11  N10  H25 :   -.001309
 
  nuclear repulsion energy.......   870.276884897 hartrees
 
 Non-default options chosen:
   SCF calculation type: DFT             
   DFT=Becke_3_Parameter/HF+Slater+Becke88+VWN+LYP (B3LYP)
   Geometry will be optimized in redundant internal coordinates
   J and K strips stored in core if nfb*nham < 1500
  
 Non-default print settings:
     11= 2
  
  end of program pre
   
   
  start of program onee
  smallest eigenvalue of S:    4.790E-04
  number of canonical orbitals.....  246
  end of program onee
   
   
  start of program hfig
  initial wavefunction generated automatically from atomic wavefunctions
 
  Irreducible     Total no   No of occupied orbitals 
  representation  orbitals   Shell_1  Shell_2    ...
  No Symm          246         52
  ------------------------
  Orbital occupation/shell    1.000
 
  end of program hfig
   
   
  start of program probe
  end of program probe
   
   
  start of program grid
   
  number of gridpoints: 
     atom        N1     C2     C3     C4     C5     H6     H7     H8
  grid # 1       95     90     87     87     83     72     73     73
  grid # 2      103     98     97     97     95    115    118    118
  grid # 3      203    196    183    183    180    217    224    224
  grid # 4      382    337    342    342    325    218    228    236
  grid # 5     4304   4304   4304   4304   4304   4304   4304   4304
  grid # 6     1192   1192   1192   1192   1192   1192   1192   1192
  grid # 7     5226   5226   5226   5226   5226   5226   5226   5226
   
  number of gridpoints: 
     atom        H9    N10    C11    C12    C13    C14    H15    H16
  grid # 1       72     95     89     87     87     89     72     73
  grid # 2      115    103     97     97     97     97    115    118
  grid # 3      216    204    195    183    183    195    216    224
  grid # 4      219    383    333    342    342    333    218    236
  grid # 5     4304   4304   4304   4304   4304   4304   4304   4304
  grid # 6     1192   1192   1192   1192   1192   1192   1192   1192
  grid # 7     5226   5226   5226   5226   5226   5226   5226   5226
   
  number of gridpoints: 
     atom       H17    H18    N19    C20    C21    C22    C23    H24
  grid # 1       73     72     95     83     87     87     90     72
  grid # 2      118    115    103     95     96     97     98    103
  grid # 3      224    216    203    180    183    183    196    199
  grid # 4      228    219    382    325    342    342    337    218
  grid # 5     4304   4304   4304   4304   4304   4304   4304   4304
  grid # 6     1192   1192   1192   1192   1192   1192   1192   1192
  grid # 7     5226   5226   5226   5226   5226   5226   5226   5226
   
  number of gridpoints: 
     atom       H25    H26  total
  grid # 1       71     72   2126
  grid # 2      100    103   2708
  grid # 3      192    199   5201
  grid # 4      209    218   7636
  grid # 5     4304   4304 111904
  grid # 6     1192   1192  30992
  grid # 7     5226   5226 135876
   
  end of program grid
   
   
  start of program rwr
 recomputing RwR matrix  19    grid:  4
  end of program rwr
   
   
  start of program scf 
 number of electrons..........        104
 number of alpha electrons....         52
 number of beta electrons.....         52
 number of orbitals, total....        246
 number of core orbitals......         52
 number of open shell orbs....          0
 number of occupied orbitals..         52
 number of virtual orbitals...        194
 number of hamiltonians.......          1
 number of shells.............          1
 SCF type: DFT=Becke_3_Parameter/HF+Slater+Becke88+VWN+LYP (B3LYP)
  
       i  u  d  i  g                 
       t  p  i  c  r                               RMS    maximum
       e  d  i  u  i                     energy  density   DIIS  
       r  t  s  t  d     total energy    change  change    error 
  
etot   1  N  N  5  M  -626.39876022823           4.5E-03  1.4E-01
etot   2  Y  Y  6  M  -627.90277395961  1.5E+00  3.9E-03  4.8E-02
etot   3  Y  Y  6  M  -628.02135633124  1.2E-01  1.3E-03  4.1E-02
etot   4  N  Y  2  U  -628.10491389589  8.4E-02  8.4E-04  1.8E-02
etot   5  Y  Y  6  M  -628.11792509952  1.3E-02  1.0E-03  1.0E-02
etot   6  N  Y  2  U  -628.12121227577  3.3E-03  1.8E-04  3.7E-03
etot   7  Y  Y  6  M  -628.12187600691  6.6E-04  3.8E-05  1.3E-03
etot   8  Y  Y  6  M  -628.12196544633  8.9E-05  2.1E-05  2.9E-04
etot   9  Y  Y  6  M  -628.12196793412  2.5E-06  3.4E-06  8.2E-05
etot  10  Y  N  6  M  -628.12196415887 -3.8E-06  0.0E+00  0.0E+00
  
  
 Energy components, in hartrees:
   (A)  Nuclear repulsion............   870.27688489729
   (E)  Total one-electron terms..... -2575.78156697738
   (I)  Total two-electron terms.....  1077.38271792122
   (J)    Coulomb....................  1167.28217668609
   (K)    Exchange+Correlation.......   -89.89945876487
   (L)  Electronic energy............ -1498.39884905616  (E+I)
   (N)  Total energy.................  -628.12196415887  (A+L)
  
 SCFE: SCF energy: DFT    -628.12196415887 hartrees   iterations:  10
  
 
 HOMO energy:     -.15369
 LUMO energy:     -.01213
 
  Orbital energies: 
  -14.37701  -14.37696  -14.37522  -10.21850  -10.21846  -10.21610
  -10.21606  -10.20844  -10.20841  -10.17612  -10.17569  -10.17246
  -10.17243  -10.17208  -10.17205    -.97366    -.96394    -.95574
    -.77587    -.77356    -.76324    -.76252    -.72213    -.66763
    -.60672    -.59497    -.58766    -.57957    -.57593    -.55659
    -.55022    -.50378    -.45172    -.44272    -.43573    -.42541
    -.41989    -.40619    -.40566    -.40530    -.39991    -.38230
    -.37897    -.37744    -.36059    -.35438    -.26301    -.24603
    -.23962    -.23757    -.20849    -.15369    -.01213     .02804
     .06675     .06918     .07490     .07790     .08809     .12936
     .13522     .13841
 
  end of program scf 
   
   
  start of program der1a
  end of program der1a
   
   
  start of program rwr
 recomputing RwR matrix  19    grid:  4
  end of program rwr
   
   
  start of program der1b
   
  forces (hartrees/bohr) : total     
   
 atom  label          x              y              z
 ----  -----   -------------  -------------  -------------
   1    N1     -4.103307E-03  -4.985529E-02  -5.527096E-04
   2    C2      6.697327E-03  -1.259304E-02  -5.786697E-05
   3    C3      9.773653E-03   1.983147E-02   2.875366E-04
   4    C4     -3.360349E-03   1.976285E-02   2.600137E-04
   5    C5     -2.359766E-03  -1.069741E-02  -1.535519E-04
   6    H6      6.300886E-04   2.340018E-03  -2.144281E-05
   7    H7     -4.662900E-04   3.264894E-03   3.987564E-05
   8    H8     -6.432467E-03  -1.639564E-03  -6.832422E-05
   9    H9      5.925198E-04  -2.318774E-03   3.628676E-05
  10    N10     4.067661E-05   5.179741E-02  -2.617518E-04
  11    C11     4.102333E-03   1.396370E-02  -6.869494E-05
  12    C12     9.276438E-03  -1.932519E-02   1.423936E-04
  13    C13    -9.334787E-03  -1.938966E-02   1.017457E-04
  14    C14    -4.157709E-03   1.404908E-02   2.126435E-05
  15    H15    -5.392731E-04  -2.324950E-03  -6.814335E-05
  16    H16     6.400921E-03  -1.671642E-03   6.271552E-06
  17    H17     4.287698E-04   3.232442E-03  -1.089254E-05
  18    H18    -6.220293E-04   2.349269E-03  -1.277717E-05
  19    N19     4.048638E-03  -4.946350E-02   2.174599E-04
  20    C20     2.274058E-03  -1.074578E-02   5.487124E-05
  21    C21     3.505854E-03   1.985847E-02  -1.117384E-04
  22    C22    -9.772539E-03   1.990018E-02  -7.222376E-05
  23    C23    -6.669760E-03  -1.256718E-02   2.589848E-05
  24    H24    -4.743368E-04   2.177317E-02  -9.813317E-05
  25    H25    -1.941200E-05  -2.040633E-02   1.345790E-04
  26    H26     5.457990E-04   2.183392E-02   2.743558E-04
 -----------   -------------  -------------  -------------
    total       5.052545E-06   9.585486E-04   4.430180E-05
   
  end of program der1b
   
   
  start of program geopt   1
  
  geometry optimization step  1
  
  
  gradient maximum:        2.4542E-02 .  (  4.5000E-04 )
  gradient rms:            9.0002E-03 .  (  3.0000E-04 )
  step size:    .22211  trust radius:    .30000
  displacement maximum:    6.5588E-02 .  (  1.8000E-03 )
  displacement rms:        2.3156E-02 .  (  1.2000E-03 )
  predicted energy change:    -9.7056E-03
  molecular structure not yet converged...
  
  center of mass moved by:
     x:    -2.1989E-04     y:    -8.4202E-04     z:    -5.1504E-05
  
  new geometry: 
                                angstroms
  atom            x                 y                 z
  N1        3.6009412798       .6943892715       .0099292169 
  C2        2.4601613442      -.0765582763      -.0034418619 
  C3        2.8843212320     -1.3942778334      -.0146315122 
  C4        4.3036480192     -1.4022495870      -.0076647574 
  C5        4.7215369610      -.0990196784       .0069491251 
  H6        2.2418728925     -2.2641027092      -.0273640122 
  H7        4.9470828014     -2.2709519592      -.0131508413 
  H8        5.7140035257       .3270642865       .0157725876 
  H9       -1.3491682592      2.6849593250      -.0106849350 
  N10       -.0045770497      -.2809686485      -.0004368554 
  C11      -1.1406324870       .4975999643      -.0027702762 
  C12       -.7106205273      1.8120694661      -.0077365163 
  C13        .7050092773      1.8105299777      -.0091814106 
  C14       1.1331429205       .4952467439      -.0042662461 
  H15       1.3453827318      2.6820626979      -.0138602471 
  H16      -5.7216003501       .3434584594       .0008589180 
  H17      -4.9626664053     -2.2573607547       .0118594522 
  H18      -2.2572592584     -2.2578523988       .0102124902 
  N19      -3.6074065590       .7047002847      -.0022197928 
  C20      -4.7303619759      -.0855193729       .0021358954 
  C21      -4.3169003131     -1.3903459254       .0076517500 
  C22      -2.8977640953     -1.3864682871       .0066403154 
  C23      -2.4691134620      -.0702270433       .0005011784 
  H24      -3.6037694659      1.7126058699      -.0064292975 
  H25       -.0043223883     -1.2886478588       .0042982755 
  H26       3.6022848063      1.7022514231       .0199379635 
   
 
  bond lengths (angstroms):
 
  N1   C2  :   1.376923       N1   C5  :   1.373041
  N1   H26 :   1.007913       C2   C3  :   1.384349
  C2   C14 :   1.444970       C3   C4  :   1.419366
  C3   H6  :   1.081433       C4   C5  :   1.368668
  C4   H7  :   1.081056       C5   H8  :   1.080100
  H9   C12 :   1.081521       N10  C11 :   1.377242
  N10  C14 :   1.377291       N10  H25 :   1.007690
  C11  C12 :   1.383027       C11  C23 :   1.444749
  C12  C13 :   1.415631       C13  C14 :   1.383218
  C13  H15 :   1.081513       H16  C20 :   1.080082
  H17  C21 :   1.081086       H18  C22 :   1.081466
  N19  C20 :   1.373133       N19  C23 :   1.377037
  N19  H24 :   1.007921       C20  C21 :   1.368778
  C21  C22 :   1.419142       C22  C23 :   1.384294
 
  bond angles
 
  C5   N1   C2  : 110.647101       H26  N1   C2  : 124.130426
  H26  N1   C5  : 125.222464       C3   C2   N1  : 106.211660
  C14  C2   N1  : 122.636574       C14  C2   C3  : 131.151766
  C4   C3   C2  : 108.161384       H6   C3   C2  : 125.710310
  H6   C3   C4  : 126.128285       C5   C4   C3  : 107.458879
  H7   C4   C3  : 126.845741       H7   C4   C5  : 125.695377
  C4   C5   N1  : 107.520961       H8   C5   N1  : 121.463407
  H8   C5   C4  : 131.015627       C14  N10  C11 : 111.271760
  H25  N10  C11 : 124.438407       H25  N10  C14 : 124.289811
  C12  C11  N10 : 106.309246       C23  C11  N10 : 122.432618
  C23  C11  C12 : 131.258128       C11  C12  H9  : 125.698721
  C13  C12  H9  : 126.248635       C13  C12  C11 : 108.052631
  C14  C13  C12 : 108.092384       H15  C13  C12 : 126.244807
  H15  C13  C14 : 125.662802       N10  C14  C2  : 122.384831
  C13  C14  C2  : 131.341197       C13  C14  N10 : 106.273966
  C23  N19  C20 : 110.619297       H24  N19  C20 : 125.341039
  H24  N19  C23 : 124.039659       N19  C20  H16 : 121.464141
  C21  C20  H16 : 130.983314       C21  C20  N19 : 107.552545
  C20  C21  H17 : 125.739250       C22  C21  H17 : 126.835729
  C22  C21  C20 : 107.425020       C21  C22  H18 : 126.160528
  C23  C22  H18 : 125.644421       C23  C22  C21 : 108.195051
  N19  C23  C11 : 122.610162       C22  C23  C11 : 131.181751
  C22  C23  N19 : 106.208087
 
  torsional angles
 
  N1   C2   C3   C4  :    .003114       N1   C2   C3   H6  :-179.946896
  N1   C2   C14  N10 :-179.150834       N1   C2   C14  C13 :    .882208
  N1   C5   C4   C3  :    .039672       N1   C5   C4   H7  :-179.981224
  C2   N1   C5   C4  :   -.039166       C2   N1   C5   H8  : 179.983391
  C2   C3   C4   C5  :   -.026789       C2   C3   C4   H7  : 179.994418
  C2   C14  N10  C11 :-179.973555       C2   C14  N10  H25 :    .077495
  C2   C14  C13  C12 : 179.992453       C2   C14  C13  H15 :    .023406
  C3   C2   N1   C5  :    .022020       C3   C2   N1   H26 : 179.989678
  C3   C2   C14  N10 :    .853017       C3   C2   C14  C13 :-179.113942
  C3   C4   C5   H8  :-179.985827       C4   C3   C2   C14 : 179.999738
  C4   C5   N1   H26 : 179.993606       C5   N1   C2   C14 :-179.974960
  C5   C4   C3   H6  : 179.922956       H6   C3   C2   C14 :    .049728
  H6   C3   C4   H7  :   -.055837       H7   C4   C5   H8  :   -.006724
  H8   C5   N1   H26 :    .016162       H9   C12  C11  N10 : 179.996439
  H9   C12  C11  C23 :   -.036610       H9   C12  C13  C14 :-179.996730
  H9   C12  C13  H15 :   -.027912       N10  C11  C12  C13 :    .035396
  N10  C11  C23  N19 :-179.980047       N10  C11  C23  C22 :    .026659
  N10  C14  C13  C12 :    .021520       N10  C14  C13  H15 :-179.947527
  C11  N10  C14  C13 :    .000602       C11  C12  C13  C14 :   -.035960
  C11  C12  C13  H15 : 179.932858       C11  C23  N19  C20 :-179.989667
  C11  C23  N19  H24 :   -.014157       C11  C23  C22  H18 :    .000748
  C11  C23  C22  C21 : 179.990613       C12  C11  N10  C14 :   -.022781
  C12  C11  N10  H25 : 179.926079       C12  C11  C23  N19 :    .057534
  C12  C11  C23  C22 :-179.935761       C13  C12  C11  C23 :-179.997653
  C13  C14  N10  H25 :-179.948348       C14  C2   N1   H26 :   -.007302
  C14  N10  C11  C23 :-179.993345       H16  C20  N19  C23 :-179.998711
  H16  C20  N19  H24 :    .026167       H16  C20  C21  H17 :    .002267
  H16  C20  C21  C22 : 179.995590       H17  C21  C20  N19 :-179.990999
  H17  C21  C22  H18 :   -.016212       H17  C21  C22  C23 : 179.993989
  H18  C22  C21  C20 : 179.990559       H18  C22  C23  N19 :-179.993370
  N19  C20  C21  C22 :    .002324       N19  C23  C22  C21 :   -.003505
  C20  N19  C23  C22 :    .005078       C20  C21  C22  C23 :    .000760
  C21  C20  N19  C23 :   -.004671       C21  C20  N19  H24 :-179.979793
  C22  C23  N19  H24 : 179.980588       C23  C11  N10  H25 :   -.044486
 
  nuclear repulsion energy.......   877.033134663 hartrees
  -------------------------------------------------
 /  end of geometry optimization iteration   1   /
 -------------------------------------------------
   
  end of program geopt
   
   
  start of program onee
  smallest eigenvalue of S:    4.346E-04
  number of canonical orbitals.....  246
  end of program onee
   
   
  start of program probe
  end of program probe
   
   
  start of program grid
   
  number of gridpoints: 
     atom        N1     C2     C3     C4     C5     H6     H7     H8
  grid # 1       95     88     87     87     82     72     73     73
  grid # 2      103     96     95     95     91    115    118    118
  grid # 3      204    194    183    184    178    216    224    224
  grid # 4      379    330    339    337    320    218    228    226
  grid # 5     4304   4304   4304   4304   4304   4304   4304   4304
  grid # 6     1192   1192   1192   1192   1192   1192   1192   1192
  grid # 7     5226   5226   5226   5226   5226   5226   5226   5226
   
  number of gridpoints: 
     atom        H9    N10    C11    C12    C13    C14    H15    H16
  grid # 1       72     95     86     87     87     86     72     73
  grid # 2      115    103     97     95     95     97    115    118
  grid # 3      216    204    190    183    183    190    217    224
  grid # 4      219    379    323    339    339    323    219    228
  grid # 5     4304   4304   4304   4304   4304   4304   4304   4304
  grid # 6     1192   1192   1192   1192   1192   1192   1192   1192
  grid # 7     5226   5226   5226   5226   5226   5226   5226   5226
   
  number of gridpoints: 
     atom       H17    H18    N19    C20    C21    C22    C23    H24
  grid # 1       73     72     95     82     87     87     86     72
  grid # 2      118    115    103     91     95     95     96    115
  grid # 3      224    216    204    178    184    183    195    199
  grid # 4      228    219    377    320    337    339    330    216
  grid # 5     4304   4304   4304   4304   4304   4304   4304   4304
  grid # 6     1192   1192   1192   1192   1192   1192   1192   1192
  grid # 7     5226   5226   5226   5226   5226   5226   5226   5226
   
  number of gridpoints: 
     atom       H25    H26  total
  grid # 1       71     72   2112
  grid # 2      112    115   2721
  grid # 3      191    199   5187
  grid # 4      209    216   7537
  grid # 5     4304   4304 111904
  grid # 6     1192   1192  30992
  grid # 7     5226   5226 135876
   
  end of program grid
   
   
  start of program rwr
 recomputing RwR matrix  10    grid:  4
  end of program rwr
   
   
  start of program scf 
  
       i  u  d  i  g                 
       t  p  i  c  r                               RMS    maximum
       e  d  i  u  i                     energy  density   DIIS  
       r  t  s  t  d     total energy    change  change    error 
  
etot   1  N  N  2  U  -628.12576579826           5.1E-04  6.1E-03
etot   2  Y  Y  6  M  -628.12890885870  3.1E-03  1.5E-04  2.1E-03
etot   3  Y  Y  6  M  -628.12904001583  1.3E-04  5.3E-05  1.5E-03
etot   4  N  Y  2  U  -628.12944693791  4.1E-04  2.2E-05  4.0E-04
etot   5  Y  Y  6  M  -628.12945797465  1.1E-05  1.2E-05  7.9E-05
etot   6  Y  Y  6  M  -628.12945903894  1.1E-06  3.1E-06  3.7E-05
etot   7  Y  N  6  M  -628.12945980608  7.7E-07  0.0E+00  0.0E+00
  
  
 Energy components, in hartrees:
   (A)  Nuclear repulsion............   877.03313466341
   (E)  Total one-electron terms..... -2589.15918996476
   (I)  Total two-electron terms.....  1083.99659549527
   (J)    Coulomb....................  1174.06255659274
   (K)    Exchange+Correlation.......   -90.06596109747
   (L)  Electronic energy............ -1505.16259446949  (E+I)
   (N)  Total energy.................  -628.12945980608  (A+L)
  
 SCFE: SCF energy: DFT    -628.12945980608 hartrees   iterations:   7
  
 
 HOMO energy:     -.15957
 LUMO energy:     -.00491
 
  Orbital energies: 
  -14.37520  -14.37517  -14.37328  -10.21446  -10.21444  -10.21218
  -10.21205  -10.20197  -10.20194  -10.17033  -10.16987  -10.16629
  -10.16622  -10.16538  -10.16537    -.98268    -.97309    -.96504
    -.77762    -.77589    -.76788    -.76351    -.73031    -.67888
    -.60142    -.59186    -.58264    -.58103    -.58010    -.55989
    -.55410    -.51136    -.45642    -.43948    -.43052    -.42644
    -.41999    -.41088    -.40674    -.40574    -.40388    -.38469
    -.38412    -.38119    -.36554    -.35968    -.26599    -.24470
    -.23883    -.23630    -.21261    -.15957    -.00491     .03478
     .06537     .07214     .07691     .08519     .08597     .12992
     .13742     .14671
 
  end of program scf 
   
   
  start of program der1a
  end of program der1a
   
   
  start of program rwr
 recomputing RwR matrix  10    grid:  4
  end of program rwr
   
   
  start of program der1b
   
  forces (hartrees/bohr) : total     
   
 atom  label          x              y              z
 ----  -----   -------------  -------------  -------------
   1    N1     -2.269720E-04   8.025710E-03  -1.222129E-05
   2    C2     -2.118048E-03  -1.562502E-03  -1.752373E-05
   3    C3     -1.395323E-03  -6.617201E-03  -7.862041E-06
   4    C4     -1.261822E-04  -9.330359E-03  -9.404680E-05
   5    C5      3.586784E-03   6.293517E-03   1.223024E-04
   6    H6     -1.818594E-04  -8.853558E-04  -3.916764E-05
   7    H7     -2.411141E-04  -6.558849E-04  -2.143098E-05
   8    H8     -2.959893E-04   8.318570E-04   1.057473E-05
   9    H9      2.095232E-04   9.999605E-04  -9.054180E-06
  10    N10     1.333607E-04  -8.152243E-03  -1.097370E-05
  11    C11    -2.183909E-03  -3.290806E-04   3.552685E-05
  12    C12     1.629435E-05   6.833434E-03  -4.464825E-05
  13    C13     3.627787E-04   6.904565E-03   6.405406E-05
  14    C14     1.981391E-03  -1.191362E-04  -2.294557E-05
  15    H15    -2.022596E-04   1.033282E-03  -3.769473E-05
  16    H16     2.851697E-04   8.646315E-04  -3.397165E-06
  17    H17     2.097240E-04  -5.866547E-04   6.426927E-06
  18    H18     1.178465E-04  -9.230179E-04   1.307961E-06
  19    N19     4.468118E-04   7.744769E-03  -2.874937E-05
  20    C20    -3.736811E-03   6.405854E-03  -3.024148E-05
  21    C21     1.395364E-04  -9.109577E-03   3.061564E-05
  22    C22     1.752765E-03  -6.750077E-03   2.986009E-05
  23    C23     1.894386E-03  -1.656434E-03   1.161771E-05
  24    H24    -6.735223E-04   7.550295E-04  -9.149998E-06
  25    H25    -1.619109E-04  -1.039294E-03   4.342961E-05
  26    H26     4.388081E-04   7.746547E-04   6.101454E-05
 -----------   -------------  -------------  -------------
    total       3.127929E-05  -2.495535E-04   2.762354E-05
   
  end of program der1b
   
   
  start of program geopt   2
  
  geometry optimization step  2
  
  
  energy change:          -7.4956E-03 .  (  5.0000E-05 )
  gradient maximum:        1.1290E-02 .  (  4.5000E-04 )
  gradient rms:            2.8009E-03 .  (  3.0000E-04 )
  step size:    .05385  trust radius:    .30000
  displacement maximum:    2.0547E-02 .  (  1.8000E-03 )
  displacement rms:        5.6145E-03 .  (  1.2000E-03 )
  predicted energy change:    -7.0465E-04
  molecular structure not yet converged...
  
  center of mass moved by:
     x:     1.4318E-04     y:    -3.3140E-04     z:    -1.9533E-05
  
  new geometry: 
                                angstroms
  atom            x                 y                 z
  N1        3.5968930022       .6985486550       .0108301681 
  C2        2.4568462969      -.0804011359      -.0038133001 
  C3        2.8790794482     -1.4061448286      -.0158858601 
  C4        4.3006206795     -1.4127146429      -.0082274371 
  C5        4.7183119180      -.0980253885       .0079053384 
  H6        2.2366526781     -2.2770707417      -.0298028627 
  H7        4.9435311476     -2.2822103528      -.0142577547 
  H8        5.7083540747       .3331701871       .0177564704 
  H9       -1.3470623059      2.7019530535      -.0113548995 
  N10       -.0048285520      -.2810828495      -.0002909039 
  C11      -1.1401442398       .5033966108      -.0027516152 
  C12       -.7104013266      1.8267721293      -.0081557077 
  C13        .7063005570      1.8250736339      -.0097125299 
  C14       1.1326077999       .5006655226      -.0046201740 
  H15       1.3452339911      2.6986203335      -.0148598633 
  H16      -5.7166204765       .3491065317       .0005533380 
  H17      -4.9589326190     -2.2684138214       .0127779387 
  H18      -2.2518479111     -2.2709897160       .0113282878 
  N19      -3.6040624738       .7085551697      -.0024635136 
  C20      -4.7276871599      -.0847748232       .0021187242 
  C21      -4.3136485654     -1.4006841141       .0082520879 
  C22      -2.8920815589     -1.3983186024       .0073723876 
  C23      -2.4660664823      -.0738219156       .0007295838 
  H24      -3.6024984721      1.7182424762      -.0071351799 
  H25       -.0058054664     -1.2907102307       .0049932726 
  H26       3.5985111687      1.7082056561       .0218913811 
   
 
  bond lengths (angstroms):
 
  N1   C2  :   1.380827       N1   C5  :   1.375543
  N1   H26 :   1.009719       C2   C3  :   1.391410
  C2   C14 :   1.446114       C3   C4  :   1.421577
  C3   H6  :   1.082321       C4   C5  :   1.379541
  C4   H7  :   1.081385       C5   H8  :   1.079912
  H9   C12 :   1.082261       N10  C11 :   1.379984
  N10  C14 :   1.380185       N10  H25 :   1.009642
  C11  C12 :   1.391413       C11  C23 :   1.446120
  C12  C13 :   1.416704       C13  C14 :   1.391338
  C13  H15 :   1.082288       H16  C20 :   1.079928
  H17  C21 :   1.081373       H18  C22 :   1.082345
  N19  C20 :   1.375473       N19  C23 :   1.380999
  N19  H24 :   1.009699       C20  C21 :   1.379523
  C21  C22 :   1.421569       C22  C23 :   1.391339
 
  bond angles
 
  C5   N1   C2  : 110.266898       H26  N1   C2  : 124.438615
  H26  N1   C5  : 125.294486       C3   C2   N1  : 106.681135
  C14  C2   N1  : 121.963567       C14  C2   C3  : 131.355298
  C4   C3   C2  : 107.927056       H6   C3   C2  : 125.923018
  H6   C3   C4  : 126.149892       C5   C4   C3  : 107.363125
  H7   C4   C3  : 126.740812       H7   C4   C5  : 125.896058
  C4   C5   N1  : 107.761778       H8   C5   N1  : 121.075292
  H8   C5   C4  : 131.162927       C14  N10  C11 : 110.855508
  H25  N10  C11 : 124.588270       H25  N10  C14 : 124.556190
  C12  C11  N10 : 106.653629       C23  C11  N10 : 121.830775
  C23  C11  C12 : 131.515591       C11  C12  H9  : 125.975554
  C13  C12  H9  : 126.102725       C13  C12  C11 : 107.921707
  C14  C13  C12 : 107.910909       H15  C13  C12 : 126.113831
  H15  C13  C14 : 125.975239       N10  C14  C2  : 121.807826
  C13  C14  C2  : 131.533935       C13  C14  N10 : 106.658237
  C23  N19  C20 : 110.266841       H24  N19  C20 : 125.312999
  H24  N19  C23 : 124.420155       N19  C20  H16 : 121.086798
  C21  C20  H16 : 131.154465       C21  C20  N19 : 107.758738
  C20  C21  H17 : 125.898643       C22  C21  H17 : 126.731347
  C22  C21  C20 : 107.370009       C21  C22  H18 : 126.169781
  C23  C22  H18 : 125.904891       C23  C22  C21 : 107.925327
  N19  C23  C11 : 121.965625       C22  C23  C11 : 131.355291
  C22  C23  N19 : 106.679084
 
  torsional angles
 
  N1   C2   C3   C4  :   -.000095       N1   C2   C3   H6  :-179.935729
  N1   C2   C14  N10 :-179.072421       N1   C2   C14  C13 :    .948096
  N1   C5   C4   C3  :    .027199       N1   C5   C4   H7  :-179.996166
  C2   N1   C5   C4  :   -.028155       C2   N1   C5   H8  : 179.990956
  C2   C3   C4   C5  :   -.016842       C2   C3   C4   H7  :-179.993222
  C2   C14  N10  C11 :-179.971285       C2   C14  N10  H25 :    .091247
  C2   C14  C13  C12 : 179.990900       C2   C14  C13  H15 :    .041453
  C3   C2   N1   C5  :    .017343       C3   C2   N1   H26 :-179.992486
  C3   C2   C14  N10 :    .921748       C3   C2   C14  C13 :-179.057735
  C3   C4   C5   H8  :-179.994544       C4   C3   C2   C14 :-179.994930
  C4   C5   N1   H26 : 179.981777       C5   N1   C2   C14 :-179.987226
  C5   C4   C3   H6  : 179.918607       H6   C3   C2   C14 :    .069435
  H6   C3   C4   H7  :   -.057773       H7   C4   C5   H8  :   -.017909
  H8   C5   N1   H26 :    .000889       H9   C12  C11  N10 : 179.992321
  H9   C12  C11  C23 :   -.034969       H9   C12  C13  C14 :-179.985194
  H9   C12  C13  H15 :   -.035836       N10  C11  C12  C13 :    .034279
  N10  C11  C23  N19 :-179.963645       N10  C11  C23  C22 :    .037154
  N10  C14  C13  C12 :    .009100       N10  C14  C13  H15 :-179.940348
  C11  N10  C14  C13 :    .012684       C11  C12  C13  C14 :   -.027220
  C11  C12  C13  H15 : 179.922139       C11  C23  N19  C20 :-179.992860
  C11  C23  N19  H24 :   -.014666       C11  C23  C22  H18 :    .003440
  C11  C23  C22  C21 : 179.994182       C12  C11  N10  C14 :   -.029534
  C12  C11  N10  H25 : 179.907910       C12  C11  C23  N19 :    .067129
  C12  C11  C23  C22 :-179.932073       C13  C12  C11  C23 :-179.993011
  C13  C14  N10  H25 :-179.924784       C14  C2   N1   H26 :    .002944
  C14  N10  C11  C23 : 179.994518       H16  C20  N19  C23 :-179.999639
  H16  C20  N19  H24 :    .022405       H16  C20  C21  H17 :    .000707
  H16  C20  C21  C22 : 179.995511       H17  C21  C20  N19 :-179.992798
  H17  C21  C22  H18 :   -.012580       H17  C21  C22  C23 : 179.996709
  H18  C22  C21  C20 : 179.992671       H18  C22  C23  N19 :-179.995853
  N19  C20  C21  C22 :    .002007       N19  C23  C22  C21 :   -.005111
  C20  N19  C23  C22 :    .006514       C20  C21  C22  C23 :    .001960
  C21  C20  N19  C23 :   -.005350       C21  C20  N19  H24 :-179.983306
  C22  C23  N19  H24 : 179.984708       C23  C11  N10  H25 :   -.068039
 
  nuclear repulsion energy.......   875.320082434 hartrees
  -------------------------------------------------
 /  end of geometry optimization iteration   2   /
 -------------------------------------------------
   
  end of program geopt
   
   
  start of program onee
  smallest eigenvalue of S:    4.442E-04
  number of canonical orbitals.....  246
  end of program onee
   
   
  start of program probe
  end of program probe
   
   
  start of program grid
   
  number of gridpoints: 
     atom        N1     C2     C3     C4     C5     H6     H7     H8
  grid # 1       95     86     87     87     83     72     73     73
  grid # 2      103     94     95     95     93    115    118    118
  grid # 3      204    194    183    184    178    216    224    224
  grid # 4      379    324    340    341    323    218    228    226
  grid # 5     4304   4304   4304   4304   4304   4304   4304   4304
  grid # 6     1192   1192   1192   1192   1192   1192   1192   1192
  grid # 7     5226   5226   5226   5226   5226   5226   5226   5226
   
  number of gridpoints: 
     atom        H9    N10    C11    C12    C13    C14    H15    H16
  grid # 1       72     95     86     87     87     86     72     73
  grid # 2      115    103     98     96     96     94    115    118
  grid # 3      216    204    195    183    183    194    217    224
  grid # 4      219    379    323    339    339    322    219    226
  grid # 5     4304   4304   4304   4304   4304   4304   4304   4304
  grid # 6     1192   1192   1192   1192   1192   1192   1192   1192
  grid # 7     5226   5226   5226   5226   5226   5226   5226   5226
   
  number of gridpoints: 
     atom       H17    H18    N19    C20    C21    C22    C23    H24
  grid # 1       73     72     95     83     87     87     86     72
  grid # 2      118    115    103     93     95     95     94    115
  grid # 3      224    216    204    178    184    183    194    203
  grid # 4      228    219    379    323    341    340    322    216
  grid # 5     4304   4304   4304   4304   4304   4304   4304   4304
  grid # 6     1192   1192   1192   1192   1192   1192   1192   1192
  grid # 7     5226   5226   5226   5226   5226   5226   5226   5226
   
  number of gridpoints: 
     atom       H25    H26  total
  grid # 1       71     72   2112
  grid # 2      112    115   2721
  grid # 3      195    203   5207
  grid # 4      209    216   7538
  grid # 5     4304   4304 111904
  grid # 6     1192   1192  30992
  grid # 7     5226   5226 135876
   
  end of program grid
   
   
  start of program rwr
 recomputing RwR matrix  10    grid:  4
  end of program rwr
   
   
  start of program scf 
  
       i  u  d  i  g                 
       t  p  i  c  r                               RMS    maximum
       e  d  i  u  i                     energy  density   DIIS  
       r  t  s  t  d     total energy    change  change    error 
  
etot   1  N  N  2  U  -628.12984448874           1.6E-04  1.4E-03
etot   2  Y  Y  6  M  -628.13005644493  2.1E-04  2.8E-05  4.9E-04
etot   3  Y  Y  6  M  -628.13007072861  1.4E-05  8.9E-06  2.3E-04
etot   4  Y  Y  6  M  -628.13007536481  4.6E-06  2.7E-06  4.5E-05
etot   5  Y  N  6  M  -628.13007258420 -2.8E-06  0.0E+00  0.0E+00
  
  
 Energy components, in hartrees:
   (A)  Nuclear repulsion............   875.32008243385
   (E)  Total one-electron terms..... -2585.78295975973
   (I)  Total two-electron terms.....  1082.33280474168
   (J)    Coulomb....................  1172.34870385594
   (K)    Exchange+Correlation.......   -90.01589911426
   (L)  Electronic energy............ -1503.45015501805  (E+I)
   (N)  Total energy.................  -628.13007258420  (A+L)
  
 SCFE: SCF energy: DFT    -628.13007258420 hartrees   iterations:   5
  
 
 HOMO energy:     -.15814
 LUMO energy:     -.00615
 
  Orbital energies: 
  -14.37604  -14.37602  -14.37376  -10.21546  -10.21545  -10.21332
  -10.21328  -10.20329  -10.20328  -10.17197  -10.17151  -10.16822
  -10.16821  -10.16737  -10.16736    -.98052    -.97080    -.96267
    -.77660    -.77447    -.76628    -.76262    -.72814    -.67619
    -.60166    -.59196    -.58297    -.58047    -.57852    -.55921
    -.55370    -.50932    -.45431    -.44037    -.43162    -.42490
    -.42117    -.40830    -.40588    -.40517    -.40422    -.38399
    -.38303    -.38091    -.36518    -.35952    -.26460    -.24504
    -.23908    -.23657    -.21127    -.15814    -.00615     .03312
     .06453     .07117     .07466     .08300     .08484     .12974
     .13761     .14508
 
  end of program scf 
   
   
  start of program der1a
  end of program der1a
   
   
  start of program rwr
 recomputing RwR matrix  10    grid:  4
  end of program rwr
   
   
  start of program der1b
   
  forces (hartrees/bohr) : total     
   
 atom  label          x              y              z
 ----  -----   -------------  -------------  -------------
   1    N1     -1.140432E-04   5.518305E-04  -7.257859E-05
   2    C2     -1.052842E-03  -1.217682E-03  -1.882914E-05
   3    C3      2.408484E-04   7.200837E-04   6.377847E-05
   4    C4     -2.089425E-04   7.272646E-04   2.058968E-05
   5    C5      2.531014E-04  -4.410826E-04   2.005107E-05
   6    H6      2.054523E-05  -1.050353E-05  -3.183626E-05
   7    H7     -1.390782E-05  -5.097727E-05  -6.684379E-06
   8    H8      1.638965E-04   2.029829E-04  -1.218590E-07
   9    H9      1.166021E-04   1.072266E-04  -3.217313E-06
  10    N10     1.241991E-04  -8.368056E-04  -5.568853E-05
  11    C11    -1.213268E-03   1.288871E-03   3.311463E-05
  12    C12     2.128309E-05  -6.957386E-04  -6.797738E-06
  13    C13    -4.392391E-05  -7.236680E-04   6.955779E-05
  14    C14     1.179153E-03   1.046165E-03  -2.501470E-05
  15    H15    -1.433176E-04   9.642500E-05  -3.632810E-05
  16    H16    -1.436124E-04   2.114731E-04   3.751928E-07
  17    H17    -2.590031E-06  -5.249121E-05   2.916945E-06
  18    H18    -6.217892E-05  -1.938330E-05  -1.321138E-06
  19    N19     3.007747E-04   5.314196E-04   8.265674E-06
  20    C20    -2.648837E-04  -4.784376E-04  -8.562466E-07
  21    C21     2.075208E-04   6.599224E-04  -1.381205E-05
  22    C22    -2.208518E-04   7.230631E-04  -1.702162E-06
  23    C23     9.959236E-04  -1.117882E-03   8.237508E-06
  24    H24    -1.274373E-04  -1.074331E-03  -2.049181E-08
  25    H25    -3.149530E-05   1.010297E-03   3.092752E-05
  26    H26     8.514514E-05  -1.094918E-03   4.324110E-05
 -----------   -------------  -------------  -------------
    total       6.569902E-05   6.312390E-05   2.624688E-05
   
  end of program der1b
   
   
  start of program geopt   3
  
  geometry optimization step  3
  
  
  energy change:          -6.1278E-04 .  (  5.0000E-05 )
  gradient maximum:        1.5383E-03 .  (  4.5000E-04 )
  gradient rms:            4.0973E-04 .  (  3.0000E-04 )
  step size:    .00884  trust radius:    .30000
  displacement maximum:    3.7605E-03 .  (  1.8000E-03 )
  displacement rms:        9.2138E-04 *  (  1.2000E-03 )
  predicted energy change:    -1.6263E-05
  molecular structure not yet converged...
  
  center of mass moved by:
     x:     2.6832E-05     y:     3.7769E-04     z:    -6.1550E-05
  
  new geometry: 
                                angstroms
  atom            x                 y                 z
  N1        3.5967200531       .6960507630       .0119213190 
  C2        2.4553075034      -.0812466180      -.0042206458 
  C3        2.8767499249     -1.4065770122      -.0171009954 
  C4        4.2983200481     -1.4143389671      -.0083846538 
  C5        4.7180861821      -.1006467909       .0091638840 
  H6        2.2339350228     -2.2772321028      -.0324745236 
  H7        4.9398701523     -2.2849112073      -.0147582828 
  H8        5.7083994882       .3307132191       .0201153114 
  H9       -1.3457990324      2.7059189780      -.0122937843 
  N10       -.0049810431      -.2771282511      -.0005763069 
  C11      -1.1409496059       .5069997760      -.0029667635 
  C12       -.7104634813      1.8297083686      -.0088688271 
  C13        .7065491903      1.8275914352      -.0106583477 
  C14       1.1333200654       .5036363931      -.0052604055 
  H15       1.3443779180      2.7019600914      -.0164276888 
  H16      -5.7167372417       .3462678459       .0010879978 
  H17      -4.9549225437     -2.2714099587       .0136515593 
  H18      -2.2489094819     -2.2707976836       .0118665196 
  N19      -3.6040728408       .7062399614      -.0022583248 
  C20      -4.7274630638      -.0876046136       .0025968208 
  C21      -4.3111359888     -1.4024669427       .0088859741 
  C22      -2.8895493821     -1.3984170354       .0078451682 
  C23      -2.4646031778      -.0741241618       .0009074894 
  H24      -3.6044837035      1.7147351795      -.0071357808 
  H25       -.0064036691     -1.2856513121       .0051769234 
  H26       3.5997246892      1.7044809732       .0241905800 
   
 
  bond lengths (angstroms):
 
  N1   C2  :   1.381041       N1   C5  :   1.375571
  N1   H26 :   1.008509       C2   C3  :   1.390784
  C2   C14 :   1.445593       C3   C4  :   1.421618
  C3   H6  :   1.082353       C4   C5  :   1.379238
  C4   H7  :   1.081445       C5   H8  :   1.080237
  H9   C12 :   1.082316       N10  C11 :   1.380321
  N10  C14 :   1.380342       N10  H25 :   1.008540
  C11  C12 :   1.391011       C11  C23 :   1.445607
  C12  C13 :   1.417015       C13  C14 :   1.391050
  C13  H15 :   1.082303       H16  C20 :   1.080237
  H17  C21 :   1.081455       H18  C22 :   1.082351
  N19  C20 :   1.375579       N19  C23 :   1.381075
  N19  H24 :   1.008507       C20  C21 :   1.379214
  C21  C22 :   1.421593       C22  C23 :   1.390820
 
  bond angles
 
  C5   N1   C2  : 110.349696       H26  N1   C2  : 124.429709
  H26  N1   C5  : 125.220593       C3   C2   N1  : 106.619110
  C14  C2   N1  : 121.877522       C14  C2   C3  : 131.503365
  C4   C3   C2  : 107.948442       H6   C3   C2  : 125.924284
  H6   C3   C4  : 126.127222       C5   C4   C3  : 107.410376
  H7   C4   C3  : 126.696298       H7   C4   C5  : 125.893319
  C4   C5   N1  : 107.672367       H8   C5   N1  : 121.067180
  H8   C5   C4  : 131.260449       C14  N10  C11 : 110.936863
  H25  N10  C11 : 124.535422       H25  N10  C14 : 124.527660
  C12  C11  N10 : 106.588623       C23  C11  N10 : 121.680324
  C23  C11  C12 : 131.731050       C11  C12  H9  : 126.026810
  C13  C12  H9  : 126.030735       C13  C12  C11 : 107.942439
  C14  C13  C12 : 107.951637       H15  C13  C12 : 126.024014
  H15  C13  C14 : 126.024311       N10  C14  C2  : 121.687368
  C13  C14  C2  : 131.732201       C13  C14  N10 : 106.580431
  C23  N19  C20 : 110.347113       H24  N19  C20 : 125.224098
  H24  N19  C23 : 124.428786       N19  C20  H16 : 121.071324
  C21  C20  H16 : 131.250481       C21  C20  N19 : 107.678195
  C20  C21  H17 : 125.896971       C22  C21  H17 : 126.697212
  C22  C21  C20 : 107.405818       C21  C22  H18 : 126.128285
  C23  C22  H18 : 125.917828       C23  C22  C21 : 107.953887
  N19  C23  C11 : 121.891201       C22  C23  C11 : 131.493812
  C22  C23  N19 : 106.614987
 
  torsional angles
 
  N1   C2   C3   C4  :    .000649       N1   C2   C3   H6  :-179.919978
  N1   C2   C14  N10 :-178.983044       N1   C2   C14  C13 :   1.024197
  N1   C5   C4   C3  :    .027846       N1   C5   C4   H7  : 179.999020
  C2   N1   C5   C4  :   -.028361       C2   N1   C5   H8  : 179.990461
  C2   C3   C4   C5  :   -.017732       C2   C3   C4   H7  :-179.988608
  C2   C14  N10  C11 :-179.987824       C2   C14  N10  H25 :    .094509
  C2   C14  C13  C12 :-179.995001       C2   C14  C13  H15 :    .072864
  C3   C2   N1   C5  :    .017011       C3   C2   N1   H26 :-179.967839
  C3   C2   C14  N10 :    .998945       C3   C2   C14  C13 :-178.993813
  C3   C4   C5   H8  :-179.993601       C4   C3   C2   C14 :-179.983390
  C4   C5   N1   H26 : 179.956344       C5   N1   C2   C14 :-179.997065
  C5   C4   C3   H6  : 179.902691       H6   C3   C2   C14 :    .095982
  H6   C3   C4   H7  :   -.068186       H7   C4   C5   H8  :   -.022427
  H8   C5   N1   H26 :   -.024834       H9   C12  C11  N10 : 179.983726
  H9   C12  C11  C23 :   -.036312       H9   C12  C13  C14 :-179.980326
  H9   C12  C13  H15 :   -.048190       N10  C11  C12  C13 :    .028451
  N10  C11  C23  N19 :-179.961129       N10  C11  C23  C22 :    .034378
  N10  C14  C13  C12 :    .011428       N10  C14  C13  H15 :-179.920707
  C11  N10  C14  C13 :    .006537       C11  C12  C13  C14 :   -.025053
  C11  C12  C13  H15 : 179.907083       C11  C23  N19  C20 :-179.998184
  C11  C23  N19  H24 :   -.016653       C11  C23  C22  H18 :    .008036
  C11  C23  C22  C21 :-179.999285       C12  C11  N10  C14 :   -.022033
  C12  C11  N10  H25 : 179.895626       C12  C11  C23  N19 :    .061437
  C12  C11  C23  C22 :-179.943055       C13  C12  C11  C23 :-179.991587
  C13  C14  N10  H25 :-179.911129       C14  C2   N1   H26 :    .018085
  C14  N10  C11  C23 : 179.995539       H16  C20  N19  C23 :-179.999787
  H16  C20  N19  H24 :    .018861       H16  C20  C21  H17 :    .000111
  H16  C20  C21  C22 : 179.996818       H17  C21  C20  N19 :-179.993595
  H17  C21  C22  H18 :   -.010552       H17  C21  C22  C23 : 179.996788
  H18  C22  C21  C20 : 179.992774       H18  C22  C23  N19 :-179.995944
  N19  C20  C21  C22 :    .003112       N19  C23  C22  C21 :   -.003265
  C20  N19  C23  C22 :    .005327       C20  C21  C22  C23 :    .000115
  C21  C20  N19  C23 :   -.005312       C21  C20  N19  H24 :-179.986664
  C22  C23  N19  H24 : 179.986858       C23  C11  N10  H25 :   -.086802
 
  nuclear repulsion energy.......   875.406058668 hartrees
  -------------------------------------------------
 /  end of geometry optimization iteration   3   /
 -------------------------------------------------
   
  end of program geopt
   
   
  start of program onee
  smallest eigenvalue of S:    4.424E-04
  number of canonical orbitals.....  246
  end of program onee
   
   
  start of program probe
  end of program probe
   
   
  start of program grid
   
  number of gridpoints: 
     atom        N1     C2     C3     C4     C5     H6     H7     H8
  grid # 1       95     86     87     87     83     72     73     73
  grid # 2      103     94     95     95     93    115    118    118
  grid # 3      204    191    183    184    178    217    224    224
  grid # 4      379    324    339    339    323    218    228    226
  grid # 5     4304   4304   4304   4304   4304   4304   4304   4304
  grid # 6     1192   1192   1192   1192   1192   1192   1192   1192
  grid # 7     5226   5226   5226   5226   5226   5226   5226   5226
   
  number of gridpoints: 
     atom        H9    N10    C11    C12    C13    C14    H15    H16
  grid # 1       72     95     86     87     87     86     72     73
  grid # 2      115    103     94     95     95     94    115    118
  grid # 3      216    204    193    183    183    194    217    224
  grid # 4      219    379    324    339    339    322    219    226
  grid # 5     4304   4304   4304   4304   4304   4304   4304   4304
  grid # 6     1192   1192   1192   1192   1192   1192   1192   1192
  grid # 7     5226   5226   5226   5226   5226   5226   5226   5226
   
  number of gridpoints: 
     atom       H17    H18    N19    C20    C21    C22    C23    H24
  grid # 1       73     72     95     83     87     87     86     72
  grid # 2      118    115    103     93     95     95     94    115
  grid # 3      224    216    204    178    184    183    193    203
  grid # 4      228    219    379    323    339    339    324    216
  grid # 5     4304   4304   4304   4304   4304   4304   4304   4304
  grid # 6     1192   1192   1192   1192   1192   1192   1192   1192
  grid # 7     5226   5226   5226   5226   5226   5226   5226   5226
   
  number of gridpoints: 
     atom       H25    H26  total
  grid # 1       71     72   2112
  grid # 2      112    115   2715
  grid # 3      195    203   5202
  grid # 4      209    216   7535
  grid # 5     4304   4304 111904
  grid # 6     1192   1192  30992
  grid # 7     5226   5226 135876
   
  end of program grid
   
   
  start of program rwr
  end of program rwr
   
   
  start of program scf 
  
       i  u  d  i  g                 
       t  p  i  c  r                               RMS    maximum
       e  d  i  u  i                     energy  density   DIIS  
       r  t  s  t  d     total energy    change  change    error 
  
etot   1  N  N  1  U  -628.13002401049           4.7E-05  3.6E-04
etot   2  Y  Y  4  M  -628.13003934190  1.5E-05  7.0E-06  1.1E-04
etot   3  Y  Y  4  M  -628.13004012350  7.8E-07  2.9E-06  8.4E-05
etot   4  Y  N  4  M  -628.13003845978 -1.7E-06  0.0E+00  0.0E+00
  
  
 Energy components, in hartrees:
   (A)  Nuclear repulsion............   875.40605866773
   (E)  Total one-electron terms..... -2585.95086215252
   (I)  Total two-electron terms.....  1082.41476502501
   (J)    Coulomb....................  1172.43308272568
   (K)    Exchange+Correlation.......   -90.01831770066
   (L)  Electronic energy............ -1503.53609712751  (E+I)
   (N)  Total energy.................  -628.13003845978  (A+L)
  
 SCFE: SCF energy: DFT    -628.13003845978 hartrees   iterations:   4
  
 
 HOMO energy:     -.15831
 LUMO energy:     -.00618
 
  Orbital energies: 
  -14.37590  -14.37590  -14.37343  -10.21546  -10.21546  -10.21327
  -10.21326  -10.20340  -10.20339  -10.17201  -10.17156  -10.16817
  -10.16815  -10.16732  -10.16731    -.98055    -.97089    -.96267
    -.77665    -.77467    -.76638    -.76264    -.72835    -.67639
    -.60179    -.59199    -.58303    -.58055    -.57855    -.55921
    -.55384    -.50929    -.45441    -.44026    -.43149    -.42492
    -.42101    -.40834    -.40576    -.40520    -.40417    -.38411
    -.38299    -.38105    -.36544    -.35977    -.26475    -.24494
    -.23902    -.23649    -.21141    -.15831    -.00618     .03303
     .06485     .07146     .07459     .08295     .08523     .12965
     .13758     .14531
 
  end of program scf 
   
   
  start of program der1a
  end of program der1a
   
   
  start of program rwr
  end of program rwr
   
   
  start of program der1b
   
  forces (hartrees/bohr) : total     
   
 atom  label          x              y              z
 ----  -----   -------------  -------------  -------------
   1    N1      7.323302E-05   6.576257E-05  -8.287162E-05
   2    C2     -1.424415E-04  -2.655564E-04  -6.428107E-06
   3    C3      1.676967E-04   7.858239E-05   5.406458E-05
   4    C4      2.570829E-05   1.785042E-04   1.428878E-05
   5    C5     -1.652104E-04  -2.287501E-04   2.056112E-05
   6    H6      4.767430E-05  -2.016034E-05  -2.829962E-05
   7    H7     -4.062951E-05  -3.397975E-05  -6.738756E-06
   8    H8     -5.690632E-05   2.368429E-05  -4.398395E-06
   9    H9      8.985486E-05   3.234975E-05  -1.326713E-06
  10    N10     1.678360E-05   1.810719E-04  -5.351386E-05
  11    C11    -2.328259E-04   4.481327E-04   2.012695E-05
  12    C12     5.682882E-06  -1.971177E-04  -5.321526E-07
  13    C13     3.799798E-05  -1.758462E-04   6.146927E-05
  14    C14     1.382327E-04   5.028605E-04  -2.355250E-05
  15    H15    -7.609749E-05   4.091815E-05  -3.199236E-05
  16    H16     6.005910E-05   3.814960E-05   7.899262E-07
  17    H17     4.226325E-05  -2.515584E-05   2.422617E-06
  18    H18    -5.110688E-05  -2.787972E-05  -1.569883E-06
  19    N19    -3.938660E-05   3.453588E-05   9.667069E-06
  20    C20     1.323798E-04  -2.011116E-04  -4.006959E-06
  21    C21    -1.789525E-06   1.737698E-04  -7.385675E-06
  22    C22    -1.131155E-04   8.865601E-05  -9.949438E-07
  23    C23     1.081382E-04  -3.075768E-04   2.339245E-06
  24    H24    -6.110747E-06   1.359448E-05  -4.683247E-06
  25    H25    -6.474112E-06   3.101572E-05   4.138634E-05
  26    H26    -2.025862E-06   1.109887E-05   5.518043E-05
 -----------   -------------  -------------  -------------
    total       1.158443E-05   4.595523E-04   2.400155E-05
   
  end of program der1b
   
   
  start of program geopt   4
  
  geometry optimization step  4
  
  
  energy change:           3.4124E-05 *  (  5.0000E-05 )
  gradient maximum:        1.1200E-03 .  (  4.5000E-04 )
  gradient rms:            1.8965E-04 *  (  3.0000E-04 )
  step size:    .00711  trust radius:    .30000
  displacement maximum:    4.4244E-03 .  (  1.8000E-03 )
  displacement rms:        7.4135E-04 *  (  1.2000E-03 )
  predicted energy change:    -5.7000E-06
  molecular structure not yet converged...
  
  center of mass moved by:
     x:     1.5349E-05     y:     1.4131E-03     z:    -3.5931E-05
  
  new geometry: 
                                angstroms
  atom            x                 y                 z
  N1        3.5977964813       .6928145722       .0131425261 
  C2        2.4532917361      -.0799945536      -.0046541914 
  C3        2.8701891688     -1.4067507925      -.0185348588 
  C4        4.2913915936     -1.4200524477      -.0087628254 
  C5        4.7160106146      -.1083039902       .0104020761 
  H6        2.2247012295     -2.2754267859      -.0356132964 
  H7        4.9290410851     -2.2935466592      -.0156584060 
  H8        5.7077107859       .3197623841       .0225007134 
  H9       -1.3449909456      2.7128113220      -.0133172679 
  N10       -.0049660555      -.2695381181      -.0004629315 
  C11      -1.1414240823       .5135086420      -.0030317281 
  C12       -.7106710154      1.8359375855      -.0095759240 
  C13        .7067461542      1.8339197130      -.0117110614 
  C14       1.1337006758       .5102743147      -.0058503712 
  H15       1.3435468109      2.7089826866      -.0184247115 
  H16      -5.7159569081       .3356553085       .0012365405 
  H17      -4.9442897730     -2.2799801431       .0145122421 
  H18      -2.2398223745     -2.2693965756       .0126712142 
  N19      -3.6050257998       .7028543691      -.0021943296 
  C20      -4.7253901354      -.0952058271       .0028578716 
  C21      -4.3042537070     -1.4082216442       .0094898051 
  C22      -2.8829727094     -1.3988366719       .0084505693 
  C23      -2.4625944030      -.0731226718       .0011605716 
  H24      -3.6096044346      1.7110387527      -.0073912222 
  H25       -.0064403317     -1.2777700751       .0062518953 
  H26       3.6049511296      1.7008947426       .0270256967 
   
 
  bond lengths (angstroms):
 
  N1   C2  :   1.381102       N1   C5  :   1.375573
  N1   H26 :   1.008201       C2   C3  :   1.390783
  C2   C14 :   1.445593       C3   C4  :   1.421298
  C3   H6  :   1.082379       C4   C5  :   1.378895
  C4   H7  :   1.081497       C5   H8  :   1.080211
  H9   C12 :   1.082258       N10  C11 :   1.380111
  N10  C14 :   1.380108       N10  H25 :   1.008255
  C11  C12 :   1.390830       C11  C23 :   1.445560
  C12  C13 :   1.417420       C13  C14 :   1.390813
  C13  H15 :   1.082264       H16  C20 :   1.080216
  H17  C21 :   1.081496       H18  C22 :   1.082375
  N19  C20 :   1.375551       N19  C23 :   1.381051
  N19  H24 :   1.008208       C20  C21 :   1.378916
  C21  C22 :   1.421312       C22  C23 :   1.390787
 
  bond angles
 
  C5   N1   C2  : 110.349218       H26  N1   C2  : 124.440560
  H26  N1   C5  : 125.210197       C3   C2   N1  : 106.590080
  C14  C2   N1  : 121.869630       C14  C2   C3  : 131.540283
  C4   C3   C2  : 107.974664       H6   C3   C2  : 125.945013
  H6   C3   C4  : 126.080236       C5   C4   C3  : 107.404345
  H7   C4   C3  : 126.660624       H7   C4   C5  : 125.935020
  C4   C5   N1  : 107.681684       H8   C5   N1  : 121.030058
  H8   C5   C4  : 131.288255       C14  N10  C11 : 111.026403
  H25  N10  C11 : 124.483912       H25  N10  C14 : 124.489589
  C12  C11  N10 : 106.526160       C23  C11  N10 : 121.489289
  C23  C11  C12 : 131.984550       C11  C12  H9  : 126.077000
  C13  C12  H9  : 125.962429       C13  C12  C11 : 107.960549
  C14  C13  C12 : 107.958604       H15  C13  C12 : 125.962371
  H15  C13  C14 : 126.078951       N10  C14  C2  : 121.494790
  C13  C14  C2  : 131.976937       C13  C14  N10 : 106.528273
  C23  N19  C20 : 110.350502       H24  N19  C20 : 125.203421
  H24  N19  C23 : 124.446076       N19  C20  H16 : 121.028934
  C21  C20  H16 : 131.290343       C21  C20  N19 : 107.680723
  C20  C21  H17 : 125.931809       C22  C21  H17 : 126.663830
  C22  C21  C20 : 107.404361       C21  C22  H18 : 126.077307
  C23  C22  H18 : 125.950792       C23  C22  C21 : 107.971901
  N19  C23  C11 : 121.871262       C22  C23  C11 : 131.536223
  C22  C23  N19 : 106.592514
 
  torsional angles
 
  N1   C2   C3   C4  :   -.000343       N1   C2   C3   H6  :-179.897940
  N1   C2   C14  N10 :-178.868733       N1   C2   C14  C13 :   1.122031
  N1   C5   C4   C3  :    .029155       N1   C5   C4   H7  : 179.991953
  C2   N1   C5   C4  :   -.030354       C2   N1   C5   H8  : 179.987776
  C2   C3   C4   C5  :   -.017924       C2   C3   C4   H7  :-179.980375
  C2   C14  N10  C11 :-179.992407       C2   C14  N10  H25 :    .116665
  C2   C14  C13  C12 :-179.984458       C2   C14  C13  H15 :    .110409
  C3   C2   N1   C5  :    .018858       C3   C2   N1   H26 :-179.926339
  C3   C2   C14  N10 :   1.097372       C3   C2   C14  C13 :-178.911864
  C3   C4   C5   H8  :-179.991520       C4   C3   C2   C14 :-179.970307
  C4   C5   N1   H26 : 179.914328       C5   N1   C2   C14 : 179.992386
  C5   C4   C3   H6  : 179.879498       H6   C3   C2   C14 :    .132095
  H6   C3   C4   H7  :   -.082953       H7   C4   C5   H8  :   -.028722
  H8   C5   N1   H26 :   -.067542       H9   C12  C11  N10 : 179.982605
  H9   C12  C11  C23 :   -.029579       H9   C12  C13  C14 :-179.974444
  H9   C12  C13  H15 :   -.069170       N10  C11  C12  C13 :    .034589
  N10  C11  C23  N19 :-179.959637       N10  C11  C23  C22 :    .027173
  N10  C14  C13  C12 :    .007327       N10  C14  C13  H15 :-179.897806
  C11  N10  C14  C13 :    .014755       C11  C12  C13  C14 :   -.026353
  C11  C12  C13  H15 : 179.878921       C11  C23  N19  C20 : 179.993872
  C11  C23  N19  H24 :   -.019538       C11  C23  C22  H18 :    .014131
  C11  C23  C22  C21 :-179.990681       C12  C11  N10  C14 :   -.031046
  C12  C11  N10  H25 : 179.859889       C12  C11  C23  N19 :    .054060
  C12  C11  C23  C22 :-179.959130       C13  C12  C11  C23 :-179.977594
  C13  C14  N10  H25 :-179.876172       C14  C2   N1   H26 :    .047189
  C14  N10  C11  C23 : 179.979574       H16  C20  N19  C23 :-179.999559
  H16  C20  N19  H24 :    .013975       H16  C20  C21  H17 :   -.001345
  H16  C20  C21  C22 : 179.997271       H17  C21  C20  N19 :-179.995869
  H17  C21  C22  H18 :   -.006437       H17  C21  C22  C23 : 179.998383
  H18  C22  C21  C20 : 179.994960       H18  C22  C23  N19 :-179.997558
  N19  C20  C21  C22 :    .002747       N19  C23  C22  C21 :   -.002369
  C20  N19  C23  C22 :    .004175       C20  C21  C22  C23 :   -.000220
  C21  C20  N19  C23 :   -.004360       C21  C20  N19  H24 :-179.990826
  C22  C23  N19  H24 : 179.990765       C23  C11  N10  H25 :   -.129491
 
  nuclear repulsion energy.......   875.520214810 hartrees
  -------------------------------------------------
 /  end of geometry optimization iteration   4   /
 -------------------------------------------------
   
  end of program geopt
   
   
  start of program onee
  smallest eigenvalue of S:    4.403E-04
  number of canonical orbitals.....  246
  end of program onee
   
   
  start of program probe
  end of program probe
   
   
  start of program grid
   
  number of gridpoints: 
     atom        N1     C2     C3     C4     C5     H6     H7     H8
  grid # 1       95     86     87     87     83     72     73     73
  grid # 2      103     94     95     95     93    115    118    118
  grid # 3      204    193    183    184    178    216    224    224
  grid # 4      379    324    339    339    323    218    228    226
  grid # 5     4304   4304   4304   4304   4304   4304   4304   4304
  grid # 6     1192   1192   1192   1192   1192   1192   1192   1192
  grid # 7     5226   5226   5226   5226   5226   5226   5226   5226
   
  number of gridpoints: 
     atom        H9    N10    C11    C12    C13    C14    H15    H16
  grid # 1       72     95     86     87     87     86     72     73
  grid # 2      115    103     96     95     95     96    115    118
  grid # 3      217    204    191    183    183    191    217    224
  grid # 4      219    379    326    339    339    328    219    226
  grid # 5     4304   4304   4304   4304   4304   4304   4304   4304
  grid # 6     1192   1192   1192   1192   1192   1192   1192   1192
  grid # 7     5226   5226   5226   5226   5226   5226   5226   5226
   
  number of gridpoints: 
     atom       H17    H18    N19    C20    C21    C22    C23    H24
  grid # 1       73     72     95     83     87     87     86     72
  grid # 2      118    115    103     93     95     95     94    115
  grid # 3      224    216    204    178    184    183    193    203
  grid # 4      228    219    379    323    339    339    324    216
  grid # 5     4304   4304   4304   4304   4304   4304   4304   4304
  grid # 6     1192   1192   1192   1192   1192   1192   1192   1192
  grid # 7     5226   5226   5226   5226   5226   5226   5226   5226
   
  number of gridpoints: 
     atom       H25    H26  total
  grid # 1       71     72   2112
  grid # 2      112    115   2719
  grid # 3      195    204   5200
  grid # 4      209    216   7543
  grid # 5     4304   4304 111904
  grid # 6     1192   1192  30992
  grid # 7     5226   5226 135876
   
  end of program grid
   
   
  start of program rwr
  end of program rwr
   
   
  start of program scf 
  
       i  u  d  i  g                 
       t  p  i  c  r                               RMS    maximum
       e  d  i  u  i                     energy  density   DIIS  
       r  t  s  t  d     total energy    change  change    error 
  
etot   1  N  N  1  U  -628.12997810314           3.7E-05  7.9E-04
etot   2  Y  Y  4  M  -628.13003170383  5.4E-05  8.1E-06  1.3E-04
etot   3  Y  Y  4  M  -628.13003278144  1.1E-06  3.0E-06  1.1E-04
etot   4  Y  N  4  M  -628.13003054509 -2.2E-06  0.0E+00  0.0E+00
  
  
 Energy components, in hartrees:
   (A)  Nuclear repulsion............   875.52021480953
   (E)  Total one-electron terms..... -2586.17742109502
   (I)  Total two-electron terms.....  1082.52717574039
   (J)    Coulomb....................  1172.54691974100
   (K)    Exchange+Correlation.......   -90.01974400061
   (L)  Electronic energy............ -1503.65024535463  (E+I)
   (N)  Total energy.................  -628.13003054509  (A+L)
  
 SCFE: SCF energy: DFT    -628.13003054509 hartrees   iterations:   4
  
 
 HOMO energy:     -.15840
 LUMO energy:     -.00612
 
  Orbital energies: 
  -14.37588  -14.37587  -14.37315  -10.21542  -10.21541  -10.21331
  -10.21330  -10.20338  -10.20338  -10.17195  -10.17149  -10.16819
  -10.16819  -10.16731  -10.16731    -.98062    -.97095    -.96271
    -.77660    -.77477    -.76649    -.76264    -.72839    -.67649
    -.60178    -.59202    -.58309    -.58063    -.57848    -.55917
    -.55399    -.50920    -.45440    -.44017    -.43153    -.42495
    -.42104    -.40825    -.40561    -.40525    -.40418    -.38417
    -.38301    -.38110    -.36561    -.35994    -.26479    -.24483
    -.23909    -.23647    -.21143    -.15840    -.00612     .03295
     .06503     .07155     .07462     .08296     .08539     .12963
     .13768     .14539
 
  end of program scf 
   
   
  start of program der1a
  end of program der1a
   
   
  start of program rwr
  end of program rwr
   
   
  start of program der1b
   
  forces (hartrees/bohr) : total     
   
 atom  label          x              y              z
 ----  -----   -------------  -------------  -------------
   1    N1      8.811421E-05  -2.331450E-04  -9.364175E-05
   2    C2      2.163259E-04   1.730718E-04   8.054089E-06
   3    C3     -2.182534E-04  -7.715676E-05   3.726465E-05
   4    C4      9.258319E-05  -9.717415E-05   6.935083E-06
   5    C5     -1.026497E-05   1.696359E-04   3.517943E-05
   6    H6      1.581547E-05   1.365108E-05  -2.759333E-05
   7    H7     -1.855050E-05   3.106077E-05  -5.397923E-06
   8    H8     -3.820780E-06  -1.172825E-05  -3.130979E-06
   9    H9      1.504539E-06   3.391739E-05  -5.008829E-06
  10    N10    -1.964236E-06  -4.552489E-05  -6.945378E-05
  11    C11     1.982737E-04  -7.239319E-05   3.073763E-05
  12    C12     1.160860E-05   1.340709E-04  -4.788706E-06
  13    C13    -2.870039E-05   1.321345E-04   4.854060E-05
  14    C14    -1.556679E-04  -8.160070E-05  -4.138844E-06
  15    H15    -1.864570E-06   2.936564E-05  -2.672504E-05
  16    H16     5.581213E-06  -1.681122E-05   1.767444E-06
  17    H17     2.415589E-05   2.786453E-05   1.439842E-06
  18    H18    -1.010269E-05   1.443560E-05  -2.722415E-06
  19    N19    -1.207921E-04  -1.991057E-04   1.031816E-05
  20    C20     1.050102E-05   1.484747E-04  -4.083767E-06
  21    C21    -9.248237E-05  -8.281723E-05  -2.701205E-06
  22    C22     1.778955E-04  -7.542990E-05   1.817796E-07
  23    C23    -1.929997E-04   1.640768E-04   1.421553E-06
  24    H24     4.015743E-05   3.052246E-04  -6.286044E-06
  25    H25     7.720847E-06  -2.313439E-04   4.288042E-05
  26    H26    -2.840746E-05   3.102059E-04   5.809488E-05
 -----------   -------------  -------------  -------------
    total       6.366374E-06   4.629593E-04   2.714296E-05
   
  end of program der1b
   
   
  start of program geopt   5
  
  geometry optimization step  5
  
  
  energy change:           7.9147E-06 *  (  5.0000E-05 )
  gradient maximum:        2.9323E-04 *  (  4.5000E-04 )
  gradient rms:            9.3321E-05 *  (  3.0000E-04 )
  step size:    .00331  trust radius:    .30000
  displacement maximum:    1.5976E-03 *  (  1.8000E-03 )
  displacement rms:        3.4461E-04 *  (  1.2000E-03 )
  predicted energy change:    -1.2974E-06
  
  ********************************************************
  **           Geometry optimization complete           **
  ********************************************************
  
  center of mass moved by:
     x:     0.0000E+00     y:     0.0000E+00     z:     0.0000E+00
  
  final geometry: 
                                angstroms
  atom            x                 y                 z
  N1        3.5977964813       .6928145722       .0131425261 
  C2        2.4532917361      -.0799945536      -.0046541914 
  C3        2.8701891688     -1.4067507925      -.0185348588 
  C4        4.2913915936     -1.4200524477      -.0087628254 
  C5        4.7160106146      -.1083039902       .0104020761 
  H6        2.2247012295     -2.2754267859      -.0356132964 
  H7        4.9290410851     -2.2935466592      -.0156584060 
  H8        5.7077107859       .3197623841       .0225007134 
  H9       -1.3449909456      2.7128113220      -.0133172679 
  N10       -.0049660555      -.2695381181      -.0004629315 
  C11      -1.1414240823       .5135086420      -.0030317281 
  C12       -.7106710154      1.8359375855      -.0095759240 
  C13        .7067461542      1.8339197130      -.0117110614 
  C14       1.1337006758       .5102743147      -.0058503712 
  H15       1.3435468109      2.7089826866      -.0184247115 
  H16      -5.7159569081       .3356553085       .0012365405 
  H17      -4.9442897730     -2.2799801431       .0145122421 
  H18      -2.2398223745     -2.2693965756       .0126712142 
  N19      -3.6050257998       .7028543691      -.0021943296 
  C20      -4.7253901354      -.0952058271       .0028578716 
  C21      -4.3042537070     -1.4082216442       .0094898051 
  C22      -2.8829727094     -1.3988366719       .0084505693 
  C23      -2.4625944030      -.0731226718       .0011605716 
  H24      -3.6096044346      1.7110387527      -.0073912222 
  H25       -.0064403317     -1.2777700751       .0062518953 
  H26       3.6049511296      1.7008947426       .0270256967 
   
 
  bond lengths (angstroms):
 
  N1   C2  :   1.381102       N1   C5  :   1.375573
  N1   H26 :   1.008201       C2   C3  :   1.390783
  C2   C14 :   1.445593       C3   C4  :   1.421298
  C3   H6  :   1.082379       C4   C5  :   1.378895
  C4   H7  :   1.081497       C5   H8  :   1.080211
  H9   C12 :   1.082258       N10  C11 :   1.380111
  N10  C14 :   1.380108       N10  H25 :   1.008255
  C11  C12 :   1.390830       C11  C23 :   1.445560
  C12  C13 :   1.417420       C13  C14 :   1.390813
  C13  H15 :   1.082264       H16  C20 :   1.080216
  H17  C21 :   1.081496       H18  C22 :   1.082375
  N19  C20 :   1.375551       N19  C23 :   1.381051
  N19  H24 :   1.008208       C20  C21 :   1.378916
  C21  C22 :   1.421312       C22  C23 :   1.390787
 
  bond angles
 
  C5   N1   C2  : 110.349218       H26  N1   C2  : 124.440560
  H26  N1   C5  : 125.210197       C3   C2   N1  : 106.590080
  C14  C2   N1  : 121.869630       C14  C2   C3  : 131.540283
  C4   C3   C2  : 107.974664       H6   C3   C2  : 125.945013
  H6   C3   C4  : 126.080236       C5   C4   C3  : 107.404345
  H7   C4   C3  : 126.660624       H7   C4   C5  : 125.935020
  C4   C5   N1  : 107.681684       H8   C5   N1  : 121.030058
  H8   C5   C4  : 131.288255       C14  N10  C11 : 111.026403
  H25  N10  C11 : 124.483912       H25  N10  C14 : 124.489589
  C12  C11  N10 : 106.526160       C23  C11  N10 : 121.489289
  C23  C11  C12 : 131.984550       C11  C12  H9  : 126.077000
  C13  C12  H9  : 125.962429       C13  C12  C11 : 107.960549
  C14  C13  C12 : 107.958604       H15  C13  C12 : 125.962371
  H15  C13  C14 : 126.078951       N10  C14  C2  : 121.494790
  C13  C14  C2  : 131.976937       C13  C14  N10 : 106.528273
  C23  N19  C20 : 110.350502       H24  N19  C20 : 125.203421
  H24  N19  C23 : 124.446076       N19  C20  H16 : 121.028934
  C21  C20  H16 : 131.290343       C21  C20  N19 : 107.680723
  C20  C21  H17 : 125.931809       C22  C21  H17 : 126.663830
  C22  C21  C20 : 107.404361       C21  C22  H18 : 126.077307
  C23  C22  H18 : 125.950792       C23  C22  C21 : 107.971901
  N19  C23  C11 : 121.871262       C22  C23  C11 : 131.536223
  C22  C23  N19 : 106.592514
 
  torsional angles
 
  N1   C2   C3   C4  :   -.000343       N1   C2   C3   H6  :-179.897940
  N1   C2   C14  N10 :-178.868733       N1   C2   C14  C13 :   1.122031
  N1   C5   C4   C3  :    .029155       N1   C5   C4   H7  : 179.991953
  C2   N1   C5   C4  :   -.030354       C2   N1   C5   H8  : 179.987776
  C2   C3   C4   C5  :   -.017924       C2   C3   C4   H7  :-179.980375
  C2   C14  N10  C11 :-179.992407       C2   C14  N10  H25 :    .116665
  C2   C14  C13  C12 :-179.984458       C2   C14  C13  H15 :    .110409
  C3   C2   N1   C5  :    .018858       C3   C2   N1   H26 :-179.926339
  C3   C2   C14  N10 :   1.097372       C3   C2   C14  C13 :-178.911864
  C3   C4   C5   H8  :-179.991520       C4   C3   C2   C14 :-179.970307
  C4   C5   N1   H26 : 179.914328       C5   N1   C2   C14 : 179.992386
  C5   C4   C3   H6  : 179.879498       H6   C3   C2   C14 :    .132095
  H6   C3   C4   H7  :   -.082953       H7   C4   C5   H8  :   -.028722
  H8   C5   N1   H26 :   -.067542       H9   C12  C11  N10 : 179.982605
  H9   C12  C11  C23 :   -.029579       H9   C12  C13  C14 :-179.974444
  H9   C12  C13  H15 :   -.069170       N10  C11  C12  C13 :    .034589
  N10  C11  C23  N19 :-179.959637       N10  C11  C23  C22 :    .027173
  N10  C14  C13  C12 :    .007327       N10  C14  C13  H15 :-179.897806
  C11  N10  C14  C13 :    .014755       C11  C12  C13  C14 :   -.026353
  C11  C12  C13  H15 : 179.878921       C11  C23  N19  C20 : 179.993872
  C11  C23  N19  H24 :   -.019538       C11  C23  C22  H18 :    .014131
  C11  C23  C22  C21 :-179.990681       C12  C11  N10  C14 :   -.031046
  C12  C11  N10  H25 : 179.859889       C12  C11  C23  N19 :    .054060
  C12  C11  C23  C22 :-179.959130       C13  C12  C11  C23 :-179.977594
  C13  C14  N10  H25 :-179.876172       C14  C2   N1   H26 :    .047189
  C14  N10  C11  C23 : 179.979574       H16  C20  N19  C23 :-179.999559
  H16  C20  N19  H24 :    .013975       H16  C20  C21  H17 :   -.001345
  H16  C20  C21  C22 : 179.997271       H17  C21  C20  N19 :-179.995869
  H17  C21  C22  H18 :   -.006437       H17  C21  C22  C23 : 179.998383
  H18  C22  C21  C20 : 179.994960       H18  C22  C23  N19 :-179.997558
  N19  C20  C21  C22 :    .002747       N19  C23  C22  C21 :   -.002369
  C20  N19  C23  C22 :    .004175       C20  C21  C22  C23 :   -.000220
  C21  C20  N19  C23 :   -.004360       C21  C20  N19  H24 :-179.990826
  C22  C23  N19  H24 : 179.990765       C23  C11  N10  H25 :   -.129491
 
  nuclear repulsion energy.......   875.520214810 hartrees
  -------------------------------------------------
 /  end of geometry optimization iteration   5   /
 -------------------------------------------------
   
  end of program geopt
   
 Total cpu seconds     user:    3494.350   user+sys:    3550.580
  
Job 3-pyrrole completed on spf1s4.itsp.nwu.edu at Tue May 22 11:15:12 2001
