24
	Energy:       0.0000000
  C       10.62000       -9.09180        0.00000
  C       10.62000      -10.04420        0.00000
  C        9.79510       -8.61560        0.00000
  C        9.79510      -10.52040        0.00000
  C        8.97030       -9.09180        0.00000
  C        8.97030      -10.04420        0.00000
  C       12.26970       -9.09180        0.00000
  C       12.26970      -10.04420        0.00000
  N       11.44480      -10.52040        0.00000
  C       13.91930       -9.09180        0.00000
  C       13.91930      -10.04420        0.00000
  C       13.09440       -8.61560        0.00000
  C       13.09440      -10.52040        0.00000
  C       13.09440      -11.59950        0.00000
  C       11.44490       -8.61560        0.00000
  C       11.44500       -7.66320        0.00000
  N       13.09450       -7.66330        0.00000
  C       14.87790       -7.66920        0.00000
  C       14.88170      -10.59990        0.00000
  H       12.26900      -10.82590        0.00000
  H       13.10040       -9.57780        0.00000
  H       13.91990      -10.95250        0.00000
  C       15.43790      -11.56190        0.00000
  C       15.43440      -12.58710        0.00000
