                  Welcome to Q-Chem
     A Quantum Leap Into The Future Of Chemistry

 J. Kong, C. A. White, A. I. Krylov, C. D. Sherrill,
 R. D. Adamson, T. R. Furlani, M. S. Lee, A. M. Lee,
 S. R. Gwaltney, T. R. Adams, C. Ochsenfeld, A. T. B. Gilbert,
 G. S. Kedziora,  V. A. Rassolov, D. R. Maurice, N. Nair,
 Y. Shao, N. A. Besley, P. E. Maslen, J. P. Dombroski,
 H. Dachsel, W. M. Zhang, P. P. Korambath, J. Baker,
 E. F. C. Byrd, T. Van Voorhis, M. Oumi, S. Hirata,
 C. P. Hsu, N. Ishikawa, J. Florian, A. Warshel,
 B. G. Johnson, P. M. W. Gill, M. Head-Gordon, J. A. Pople,
 Q-Chem, Version 2.0, Q-Chem, Inc., Export, PA (2000).


 Intel x86 Linux Version

======================================================================
User input:
======================================================================
$comment
3-thio.qcout
$end

$molecule
0 1
16 3.9314 -1.08831 -0.022864
6 2.66128 0.127805 0.00485
6 3.2174 1.3901 0.02261
6 4.64047 1.38748 0.016037
6 5.17033 0.127085 -0.006391
1 2.62074 2.29618 0.041986
1 5.24352 2.28887 0.028801
1 6.21131 -0.166462 -0.014952
1 -1.30277 -2.42314 0.018401
16 1e-06 0.964248 -0.006946
6 -1.26645 -0.254535 0.002268
6 -0.70799 -1.51574 0.011837
6 0.707904 -1.51576 0.013801
6 1.2664 -0.254561 0.005452
1 1.30266 -2.42315 0.023023
1 -6.21139 -0.166485 -0.001539
1 -5.24343 2.2891 -0.019244
1 -2.62064 2.29647 -0.017491
16 -3.93155 -1.08845 0.007758
6 -5.17038 0.127092 -0.002872
6 -4.64045 1.38762 -0.011866
6 -3.21736 1.39026 -0.010961
6 -2.66131 0.12784 -0.001129
$end

$rem
EXCHANGE            B              
CORRELATION         LYP           
CIS_N_ROOTS         5
CIS_TRIPLETS        FALSE
SCF_CONVERGENCE     7
RPA		    TRUE
BASIS               6-31G*         
MEMORY              20000000
MAX_CIS_CYCLES	    50
$end
======================================================================
Processing $rem in the input.

#####################################################
#  Entering fldman.exe on Sat Apr 13 08:21:34 2002  #
#####################################################

 ----------------------------------------------------
       Standard Nuclear Orientation (Angstroms)
    I     Atom         X            Y            Z
 ----------------------------------------------------
    1      S       3.931425    -1.086287    -0.022076
    2      C       2.661306     0.129835     0.005362
    3      C       3.217427     1.392131     0.023031
    4      C       4.640498     1.389506     0.016607
    5      C       5.170357     0.129107    -0.005617
    6      H       2.620768     2.298214     0.042238
    7      H       5.243549     2.290896     0.029327
    8      H       6.211337    -0.164444    -0.014035
    9      H      -1.302753    -2.421098     0.018801
   10      S       0.000030     0.966284    -0.006810
   11      C      -1.266425    -0.252495     0.002416
   12      C      -0.707969    -1.513700     0.012192
   13      C       0.707924    -1.513724     0.014304
   14      C       1.266425    -0.252527     0.005864
   15      H       1.302677    -2.421114     0.023695
   16      H      -6.211364    -0.164432    -0.001917
   17      H      -5.243396     2.291149    -0.019811
   18      H      -2.620606     2.298512    -0.017785
   19      S      -3.931528    -1.086402     0.007727
   20      C      -5.170353     0.129142    -0.003176
   21      C      -4.640419     1.389668    -0.012264
   22      C      -3.217329     1.392304    -0.011211
   23      C      -2.661284     0.129884    -0.001171
 ----------------------------------------------------
 Molecular Point Group                 C1    NOp =  1
 Largest Abelian Subgroup              C1    NOp =  1
 Nuclear Repulsion Energy =  1173.5010990695 hartrees
 There are       64 alpha and       64 beta electrons
 Requested basis set is 6-31G(d)
 There are 79 shells and 253 basis functions
 A cutoff of  1.0D-10 yielded   2717 shell pairs
 There are  30235 function pairs
 Standard Electronic Orientation quadrupole field applied

#####################################################
#  Entering gesman.exe on Sat Apr 13 08:21:35 2002  #
#####################################################

 Smallest overlap matrix eigenvalue = 6.94E-04
 Multipole matrices computed through 2nd order
 Guess from superposition of atomic densities
 Warning:  Energy on first SCF cycle will be non-variational

#####################################################
#  Entering scfman.exe on Sat Apr 13 08:21:38 2002  #
#####################################################

 A restricted Kohn-Sham SCF calculation will be
 performed using Pulay DIIS extrapolation
 Exchange:  Becke      Correlation:  LYP
 SCF converges when DIIS error is below 1.0E-07
 Using CFMM for Coulomb evaluation.
 ---------------------------------------
  Cycle       Energy         DIIS Error
 ---------------------------------------
    1   -1659.4109139707      4.91E-02  
    2   -1655.9183791760      7.08E-03  
    3   -1654.9486902300      1.21E-02  
    4   -1656.3140191518      2.60E-03  
    5   -1656.3524367576      1.69E-03  
    6   -1656.3745574408      6.41E-04  
    7   -1656.3779935699      2.63E-04  
    8   -1656.3785658883      6.52E-05  
    9   -1656.3785988055      3.07E-05  
   10   -1656.3786076167      7.34E-06  
   11   -1656.3786079834      3.89E-06  
   12   -1656.3786081134      1.24E-06  
   13   -1656.3786081266      4.55E-07  
   14   -1656.3786081337      6.64E-08  Convergence criterion met
 ---------------------------------------
 SCF time:  CPU 1218.96 s  wall 1222.00 s


#####################################################
#  Entering setman.exe on Sat Apr 13 08:42:03 2002  #
#####################################################

 Direct TDDFT/TDA calculation will be performed
 Exchange:  Becke      Correlation:  LYP
 Singlet excitation energies requested
 CIS energy converged when residual is below 10e- 6
 ---------------------------------------------------
 Iter    Rts Conv    Rts Left    Ttl Dev     Max Dev
 ---------------------------------------------------
   1         0           5      0.004100    0.001270
   2         0           5      0.002262    0.001116
   3         0           5      0.001221    0.000715
   4         0           5      0.000622    0.000383
   5         0           5      0.000198    0.000115
   6         1           4      0.000092    0.000072
   7         2           3      0.000130    0.000126
   8         4           1      0.000043    0.000042
   9         4           1      0.000010    0.000009
  10         4           1      0.000012    0.000011
  11         4           1      0.000003    0.000002
  12         5           0      0.000001    0.000000    Roots Converged
 ---------------------------------------------------

 Excited state   1: excitation energy (eV) =    3.2858
    Total energy for state   1:  -1656.257858818521
    Multiplicity: Singlet 
    Trans. Mom.:  3.7988 X   0.0000 Y   0.0019 Z
    Strength   :  1.1617
    D( 64) --> V(  1) amplitude =  0.9628

 Excited state   2: excitation energy (eV) =    3.4870
    Total energy for state   2:  -1656.250464257628
    Multiplicity: Singlet 
    Trans. Mom.: -0.0005 X   0.0535 Y  -0.0012 Z
    Strength   :  0.0002
    D( 62) --> V(  1) amplitude =  0.2575
    D( 63) --> V(  1) amplitude =  0.6103
    D( 64) --> V(  2) amplitude =  0.7391

 Excited state   3: excitation energy (eV) =    4.0776
    Total energy for state   3:  -1656.228757532276
    Multiplicity: Singlet 
    Trans. Mom.: -0.0001 X   0.2100 Y   0.0049 Z
    Strength   :  0.0044
    D( 60) --> V(  1) amplitude = -0.2913
    D( 61) --> V(  2) amplitude = -0.2596
    D( 62) --> V(  1) amplitude =  0.8582
    D( 63) --> V(  1) amplitude = -0.2861

 Excited state   4: excitation energy (eV) =    4.1141
    Total energy for state   4:  -1656.227416526393
    Multiplicity: Singlet 
    Trans. Mom.: -0.0841 X  -0.0002 Y   0.0058 Z
    Strength   :  0.0007
    D( 61) --> V(  1) amplitude =  0.9284
    D( 62) --> V(  2) amplitude = -0.2173

 Excited state   5: excitation energy (eV) =    4.2229
    Total energy for state   5:  -1656.223420542717
    Multiplicity: Singlet 
    Trans. Mom.:  0.0159 X  -0.0050 Y   0.0248 Z
    Strength   :  0.0001
    D( 64) --> V(  3) amplitude = -0.9992

 Direct TDDFT calculation will be performed
 Exchange:  Becke      Correlation:  LYP
 ---------------------------------------------------
 Iter    Rts Conv    Rts Left    Ttl Dev     Max Dev
 ---------------------------------------------------
   1         2           3      0.000052    0.000045
   2         1           4      0.000047    0.000037
   3         1           4      0.000055    0.000024
   4         0           5      0.000051    0.000018
   5         1           4      0.000037    0.000015
   6         0           5      0.000029    0.000012
   7         0           5      0.000020    0.000006
   8         0           5      0.000016    0.000006
   9         1           4      0.000009    0.000003
  10         0           5      0.000013    0.000005
  11         0           5      0.000008    0.000002
  12         1           4      0.000008    0.000002
  13         2           3      0.000006    0.000002
  14         3           2      0.000004    0.000001
  15         3           2      0.000004    0.000001
  16         4           1      0.000004    0.000001
  17         5           0      0.000003    0.000001    Roots Converged
 ---------------------------------------------------

 Excited state   1: excitation energy (eV) =    3.0359
    Total energy for state   1:  -1656.267040445912
    Multiplicity: Singlet 
    Trans. Mom.:  3.2035 X   0.0015 Y   0.0029 Z
    Strength   :  0.8261
    X: D( 64) --> V(  1) amplitude =  0.9969

 Excited state   2: excitation energy (eV) =    3.4769
    Total energy for state   2:  -1656.250835938670
    Multiplicity: Singlet 
    Trans. Mom.:  0.0003 X   0.0568 Y  -0.0027 Z
    Strength   :  0.0003
    X: D( 62) --> V(  1) amplitude =  0.2326
    X: D( 63) --> V(  1) amplitude =  0.6024
    X: D( 64) --> V(  2) amplitude =  0.7564

 Excited state   3: excitation energy (eV) =    4.0191
    Total energy for state   3:  -1656.230907700701
    Multiplicity: Singlet 
    Trans. Mom.:  0.0016 X   0.1759 Y   0.0042 Z
    Strength   :  0.0031
    X: D( 60) --> V(  1) amplitude = -0.2166
    X: D( 62) --> V(  1) amplitude =  0.8847
    X: D( 63) --> V(  1) amplitude = -0.3333

 Excited state   4: excitation energy (eV) =    4.0782
    Total energy for state   4:  -1656.228738522254
    Multiplicity: Singlet 
    Trans. Mom.: -0.1144 X   0.0022 Y   0.0052 Z
    Strength   :  0.0013
    X: D( 61) --> V(  1) amplitude =  0.9508

 Excited state   5: excitation energy (eV) =    4.2199
    Total energy for state   5:  -1656.223528337747
    Multiplicity: Singlet 
    Trans. Mom.:  0.0137 X   0.0015 Y   0.0139 Z
    Strength   :  0.0000
    X: D( 64) --> V(  3) amplitude = -0.9991


#####################################################
#  Entering anlman.exe on Sat Apr 13 15:27:15 2002  #
#####################################################

 Analysis of SCF Wavefunction

 --------------------------------------------------------------
                    Orbital Energies (a.u.)
 --------------------------------------------------------------

 Alpha MOs
 -- Occupied --
-88.162 -88.162 -88.161  -9.963  -9.963  -9.962  -9.962  -9.950
 -9.950  -9.930  -9.930  -9.930  -9.930  -9.929  -9.929  -7.703
 -7.703  -7.702  -5.734  -5.734  -5.733  -5.730  -5.730  -5.729
 -5.726  -5.726  -5.724  -0.808  -0.795  -0.780  -0.696  -0.669
 -0.658  -0.657  -0.645  -0.612  -0.541  -0.523  -0.498  -0.488
 -0.466  -0.465  -0.462  -0.436  -0.396  -0.362  -0.361  -0.355
 -0.354  -0.348  -0.341  -0.335  -0.328  -0.323  -0.312  -0.306
 -0.295  -0.288  -0.249  -0.221  -0.215  -0.211  -0.202  -0.157
 -- Virtual --
 -0.073  -0.034  -0.003  -0.002   0.005   0.007   0.034   0.041
  0.064   0.067   0.071   0.075   0.088   0.093   0.123   0.138
  0.146   0.150   0.170   0.173   0.189   0.217   0.224   0.227
  0.231   0.261   0.266   0.277   0.305   0.310   0.327   0.332
  0.334   0.335   0.336   0.358   0.375   0.388   0.414   0.422
  0.429   0.439   0.457   0.464   0.464   0.497   0.498   0.512
  0.515   0.527   0.541   0.542   0.551   0.559   0.563   0.568
  0.569   0.585   0.590   0.607   0.625   0.627   0.644   0.669
  0.705   0.739   0.741   0.743   0.744   0.754   0.758   0.763
  0.768   0.774   0.784   0.784   0.790   0.793   0.808   0.833
  0.837   0.848   0.864   0.872   0.877   0.887   0.903   0.906
  0.919   0.952   0.956   0.967   0.981   0.995   0.995   1.010
  1.017   1.050   1.060   1.062   1.095   1.122   1.138   1.162
  1.228   1.236   1.256   1.272   1.303   1.319   1.324   1.339
  1.342   1.352   1.400   1.400   1.423   1.447   1.478   1.487
  1.492   1.502   1.624   1.650   1.663   1.696   1.732   1.745
  1.750   1.779   1.791   1.841   1.844   1.865   1.883   1.898
  1.901   1.913   1.936   2.030   2.047   2.075   2.101   2.144
  2.147   2.148   2.162   2.186   2.190   2.196   2.213   2.232
  2.247   2.268   2.307   2.324   2.343   2.413   2.419   2.440
  2.441   2.491   2.556   2.567   2.643   2.694   2.753   2.829
  2.844   2.905   2.927   2.984   3.003   3.091   3.854   3.866
  3.871   3.992   4.010   4.020   4.021   4.031   4.071   4.170
  4.242   4.313   4.339   4.468   4.469
 --------------------------------------------------------------

         Mulliken Net Atomic Charges

     Atom                 Charge (a.u.)
  ----------------------------------------
      1 S                     0.238880
      2 C                    -0.135511
      3 C                    -0.119238
      4 C                    -0.067445
      5 C                    -0.306749
      6 H                     0.123121
      7 H                     0.114517
      8 H                     0.147081
      9 H                     0.123760
     10 S                     0.234471
     11 C                    -0.107281
     12 C                    -0.128373
     13 C                    -0.128343
     14 C                    -0.107306
     15 H                     0.123759
     16 H                     0.147082
     17 H                     0.114518
     18 H                     0.123125
     19 S                     0.238883
     20 C                    -0.306765
     21 C                    -0.067434
     22 C                    -0.119282
     23 C                    -0.135468
  ----------------------------------------
  Sum of atomic charges =     0.000000

 -----------------------------------------------------------------
                    Cartesian Multipole Moments
 -----------------------------------------------------------------
    Charge (ESU x 10^10)
                 0.0000
    Dipole Moment (Debye)
         X       0.0001      Y       0.5898      Z       0.0134
       Tot       0.5900
    Quadrupole Moments (Debye-Ang)
        XX     -87.6601     XY      -0.0003     YY     -98.9486
        XZ       0.0507     YZ       0.0010     ZZ    -113.1734
    Octapole Moments (Debye-Ang^2)
       XXX       0.0033    XXY      18.5899    XYY      -0.0044
       YYY       4.9888    XXZ      -0.2413    XYZ       0.4659
       YYZ       0.1741    XZZ       0.0048    YZZ      -1.5301
       ZZZ      -0.0641
    Hexadecapole Moments (Debye-Ang^3)
      XXXX   -6181.5922   XXXY       0.0065   XXYY   -1275.4485
      XYYY      -0.0120   YYYY    -833.4268   XXXZ      -0.7152
      XXYZ       0.6667   XYYZ       0.8797   YYYZ      -0.0468
      XXZZ   -1334.8557   XYZZ       0.0044   YYZZ    -182.4642
      XZZZ      -0.4034   YZZZ       0.0380   ZZZZ    -127.9258
 -----------------------------------------------------------------
Archival summary:
1\1\hydra.chem.northwestern.edu\SP\BLYP\6-31G*\S3C12H8\root\13Apr2002\0\\#,BLYP,6-31G*,\\3-thio.qcout\\0,1\S\C,1,1.75767\C,2,1.37935,1,110.019\H,3,1.08498,2,122.874,1,179.981,0\C,3,1.4159,2,113.884,1,-0.0857601,0\H,5,1.08498,3,123.243,2,-179.869,0\C,5,1.37935,3,113.883,2,0.0149578,0\C,2,1.44633,1,120.767,3,179.978,0\C,8,1.37949,2,129.102,1,0.0128185,0\H,9,1.08505,8,122.866,2,0.01179,0\C,9,1.42309,8,113.665,2,-179.981,0\H,11,1.08458,9,123.671,8,179.986,0\C,11,1.36742,9,112.908,8,0.00537083,0\H,13,1.08162,11,128.551,9,179.989,0\C,7,1.44634,5,129.214,3,-179.988,0\C,15,1.37948,7,129.102,5,178.602,0\H,16,1.08506,15,122.865,7,-0.1113,0\C,16,1.42309,15,113.665,7,-179.982,0\H,18,1.08459,16,123.671,15,179.935,0\C,18,1.36742,16,112.908,15,0.0129747,0\H,20,1.08161,18,128.551,16,179.941,0\S,13,1.73561,11,111.656,9,-0.0291294,0\S,20,1.73563,18,111.655,16,-0.102176,0\\BLYP=-1656.37861\\@

        *************************************************************
        *                                                           *
        *  Thank you very much for using Q-Chem.  Have a nice day.  *
        *                                                           *
        *************************************************************


 Total job wall time:  25544.00 s
