60
xyz/buckyball.xyz	Energy:       0.0000000
  C       -1.18073        1.41891        3.02497
  C       -0.00340        0.69755        3.47412
  C       -0.00340       -0.70435        3.47412
  C       -1.18073       -1.42572        3.02497
  C       -2.31041       -0.73157        2.59624
  C       -2.31041        0.72477        2.59624
  C        1.17392        1.41891        3.02497
  C        1.17392       -1.42572        3.02497
  C       -0.73157       -2.60304        2.30361
  C       -3.03178       -1.18073        1.41891
  C       -3.03178        1.17392        1.41891
  C       -0.73157        2.59624        2.30361
  C       -2.60304       -2.31041        0.72477
  C       -1.42572       -3.03178        1.17392
  C       -2.60304       -2.31041       -0.73157
  C       -0.70435       -3.48093       -0.00340
  C        2.30361        0.72477        2.59624
  C        0.72477       -2.60304        2.30361
  C       -1.42572       -3.03178       -1.18073
  C        1.41891       -3.03178        1.17392
  C        2.30361       -0.73157        2.59624
  C       -3.48093       -0.00340        0.69755
  C       -2.60304        2.30361        0.72477
  C        3.02497        1.17392        1.41891
  C       -1.42572        3.02497        1.17392
  C        0.72477        2.59624        2.30361
  C       -2.60304        2.30361       -0.73157
  C       -0.70435        3.47412       -0.00340
  C        1.41891        3.02497        1.17392
  C        0.69755       -3.48093       -0.00340
  C       -3.48093       -0.00340       -0.70435
  C        3.02497       -1.18073        1.41891
  C       -1.42572        3.02497       -1.18073
  C        0.69755        3.47412       -0.00340
  C        2.59624        2.30361        0.72477
  C        2.59624        2.30361       -0.73157
  C        3.47412       -0.00340        0.69755
  C        2.59624       -2.31041        0.72477
  C        2.59624       -2.31041       -0.73157
  C        1.41891        3.02497       -1.18073
  C        0.72477        2.59624       -2.31041
  C        1.17392        1.41891       -3.03178
  C       -0.73157        2.59624       -2.31041
  C       -3.03178       -1.18073       -1.42572
  C        3.02497       -1.18073       -1.42572
  C       -3.03178        1.17392       -1.42572
  C       -2.31041        0.72477       -2.60304
  C        3.47412       -0.00340       -0.70435
  C        1.41891       -3.03178       -1.18073
  C        0.72477       -2.60304       -2.31041
  C        3.02497        1.17392       -1.42572
  C        2.30361        0.72477       -2.60304
  C       -1.18073        1.41891       -3.03178
  C       -0.00340        0.69755       -3.48093
  C        2.30361       -0.73157       -2.60304
  C       -2.31041       -0.73157       -2.60304
  C       -0.73157       -2.60304       -2.31041
  C        1.17392       -1.42572       -3.03178
  C       -1.18073       -1.42572       -3.03178
  C       -0.00340       -0.70435       -3.48093
