1
xyz/table.hin	Energy:       0.0000000
  H        7.30000        3.50000        0.00000
