 Entering Gaussian System, Link 0=g03
 Initial command:
 /usr/local/g03/l1.exe /scratch/ghutchis/Gau-1437.inp -scrdir=/scratch/ghutchis/
 Entering Link 1 = /usr/local/g03/l1.exe PID=      1438.
  
 Copyright (c) 1988,1990,1992,1993,1995,1998,2003, Gaussian, Inc.
                  All Rights Reserved.
  
 This is the Gaussian(R) 03 program.  It is based on the
 the Gaussian(R) 98 system (copyright 1998, Gaussian, Inc.),
 the Gaussian(R) 94 system (copyright 1995, Gaussian, Inc.),
 the Gaussian 92(TM) system (copyright 1992, Gaussian, Inc.),
 the Gaussian 90(TM) system (copyright 1990, Gaussian, Inc.),
 the Gaussian 88(TM) system (copyright 1988, Gaussian, Inc.),
 the Gaussian 86(TM) system (copyright 1986, Carnegie Mellon
 University), and the Gaussian 82(TM) system (copyright 1983,
 Carnegie Mellon University). Gaussian is a federally registered
 trademark of Gaussian, Inc.
  
 This software contains proprietary and confidential information,
 including trade secrets, belonging to Gaussian, Inc.
  
 This software is provided under written license and may be
 used, copied, transmitted, or stored only in accord with that
 written license.
  
 The following legend is applicable only to US Government
 contracts under DFARS:
  
                    RESTRICTED RIGHTS LEGEND
  
 Use, duplication or disclosure by the US Government is subject
 to restrictions as set forth in subparagraph (c)(1)(ii) of the
 Rights in Technical Data and Computer Software clause at DFARS
 252.227-7013.
  
 Gaussian, Inc.
 Carnegie Office Park, Building 6, Pittsburgh, PA 15106 USA
  
 The following legend is applicable only to US Government
 contracts under FAR:
  
                    RESTRICTED RIGHTS LEGEND
  
 Use, reproduction and disclosure by the US Government is subject
 to restrictions as set forth in subparagraph (c) of the
 Commercial Computer Software - Restricted Rights clause at FAR
 52.227-19.
  
 Gaussian, Inc.
 Carnegie Office Park, Building 6, Pittsburgh, PA 15106 USA
  
  
 ---------------------------------------------------------------
 Warning -- This program may not be used in any manner that
 competes with the business of Gaussian, Inc. or will provide
 assistance to any competitor of Gaussian, Inc.  The licensee
 of this program is prohibited from giving any competitor of
 Gaussian, Inc. access to this program.  By using this program,
 the user acknowledges that Gaussian, Inc. is engaged in the
 business of creating and licensing software in the field of
 computational chemistry and represents and warrants to the
 licensee that it is not a competitor of Gaussian, Inc. and that
 it will not use this program in any manner prohibited above.
 ---------------------------------------------------------------
  

 Cite this work as:
 Gaussian 03, Revision B.04,
 M. J. Frisch, G. W. Trucks, H. B. Schlegel, G. E. Scuseria, 
 M. A. Robb, J. R. Cheeseman, J. A. Montgomery, Jr., T. Vreven, 
 K. N. Kudin, J. C. Burant, J. M. Millam, S. S. Iyengar, J. Tomasi, 
 V. Barone, B. Mennucci, M. Cossi, G. Scalmani, N. Rega, 
 G. A. Petersson, H. Nakatsuji, M. Hada, M. Ehara, K. Toyota, 
 R. Fukuda, J. Hasegawa, M. Ishida, T. Nakajima, Y. Honda, O. Kitao, 
 H. Nakai, M. Klene, X. Li, J. E. Knox, H. P. Hratchian, J. B. Cross, 
 C. Adamo, J. Jaramillo, R. Gomperts, R. E. Stratmann, O. Yazyev, 
 A. J. Austin, R. Cammi, C. Pomelli, J. W. Ochterski, P. Y. Ayala, 
 K. Morokuma, G. A. Voth, P. Salvador, J. J. Dannenberg, 
 V. G. Zakrzewski, S. Dapprich, A. D. Daniels, M. C. Strain, 
 O. Farkas, D. K. Malick, A. D. Rabuck, K. Raghavachari, 
 J. B. Foresman, J. V. Ortiz, Q. Cui, A. G. Baboul, S. Clifford, 
 J. Cioslowski, B. B. Stefanov, G. Liu, A. Liashenko, P. Piskorz, 
 I. Komaromi, R. L. Martin, D. J. Fox, T. Keith, M. A. Al-Laham, 
 C. Y. Peng, A. Nanayakkara, M. Challacombe, P. M. W. Gill, 
 B. Johnson, W. Chen, M. W. Wong, C. Gonzalez, and J. A. Pople, 
 Gaussian, Inc., Pittsburgh PA, 2003.
 
 *********************************************
 Gaussian 03:  x86-Linux-G03RevB.04 2-Jun-2003
                   4-Apr-2005 
 *********************************************
 %chk=heterocycle-05
 ------------------
 # B3LYP/6-31G* Opt
 ------------------
 1/14=-1,18=20,26=3,38=1/1,3;
 2/9=110,17=6,18=5,40=1/2;
 3/5=1,6=6,7=1,11=2,16=1,25=1,30=1,74=-5/1,2,3;
 4//1;
 5/5=2,38=5/2;
 6/7=2,8=2,9=2,10=2,28=1/1;
 7//1,2,3,16;
 1/14=-1,18=20/3(1);
 99//99;
 2/9=110/2;
 3/5=1,6=6,7=1,11=2,16=1,25=1,30=1,74=-5/1,2,3;
 4/5=5,16=3/1;
 5/5=2,38=5/2;
 7//1,2,3,16;
 1/14=-1,18=20/3(-5);
 2/9=110/2;
 6/7=2,8=2,9=2,10=2,19=2,28=1/1;
 99/9=1/99;
 -----------------------------------
 /Users/ghutchis/heterocycle-05.mol2
 -----------------------------------
 Symbolic Z-matrix:
 Charge =  0 Multiplicity = 1
 C                    -3.7674    0.4837   -0.0414 
 C                    -4.6214   -0.6172   -0.0828 
 C                    -2.4004   -0.0012   -0.0343 
 C                    -2.5056   -1.4445   -0.0726 
 C                    -1.1503    0.6064   -0.0009 
 C                    -0.0041   -0.1907   -0.0077 
 C                    -0.1174   -1.5949   -0.045 
 C                    -1.3463   -2.2353   -0.078 
 N                    -3.8554   -1.7951   -0.0617 
 O                    -4.0563    1.8204   -0.0047 
 H                    -5.7098   -0.6586   -0.0992 
 H                    -1.0769    1.7039    0.0301 
 C                     1.3112    0.5063    0.0254 
 Br                    0.7913   -2.2166   -0.0483 
 H                    -1.4101   -3.331    -0.1062 
 H                    -4.2066   -2.6926   -0.2632 
 C                     2.5222   -0.4       0.0031 
 H                     1.3638    1.201    -0.8607 
 H                     1.3512    1.1401    0.9567 
 S                     3.9681    0.4633    0.009 
 H                     2.4658   -1.098     0.8844 
 H                     2.4571   -1.0674   -0.9011 
 O                     4.2111    1.1207   -1.1769 
 O                     4.2235    1.0887    1.2099 
 O                     5.0077   -0.8303   -0.0089 
 H                     5.9432   -0.6558    0.0424 
 C                    -5.4515    2.117    -0.0005 
 H                    -5.4832    3.2345    0.0367 
 H                    -5.9342    1.7348   -0.9324 
 Hi(Iso=2)            -5.9428    1.674     0.8996 
 

 GradGradGradGradGradGradGradGradGradGradGradGradGradGradGradGradGradGrad
 Berny optimization.
 Initialization pass.
                           ----------------------------
                           !    Initial Parameters    !
                           ! (Angstroms and Degrees)  !
 --------------------------                            --------------------------
 ! Name  Definition              Value          Derivative Info.                !
 --------------------------------------------------------------------------------
 ! R1    R(1,2)                  1.3939         estimate D2E/DX2                !
 ! R2    R(1,3)                  1.4505         estimate D2E/DX2                !
 ! R3    R(1,10)                 1.3681         estimate D2E/DX2                !
 ! R4    R(2,9)                  1.4052         estimate D2E/DX2                !
 ! R5    R(2,11)                 1.0893         estimate D2E/DX2                !
 ! R6    R(3,4)                  1.4476         estimate D2E/DX2                !
 ! R7    R(3,5)                  1.3903         estimate D2E/DX2                !
 ! R8    R(4,8)                  1.4033         estimate D2E/DX2                !
 ! R9    R(4,9)                  1.3946         estimate D2E/DX2                !
 ! R10   R(5,6)                  1.3961         estimate D2E/DX2                !
 ! R11   R(5,12)                 1.1004         estimate D2E/DX2                !
 ! R12   R(6,7)                  1.4093         estimate D2E/DX2                !
 ! R13   R(6,13)                 1.4889         estimate D2E/DX2                !
 ! R14   R(6,14)                 2.1768         estimate D2E/DX2                !
 ! R15   R(7,8)                  1.3861         estimate D2E/DX2                !
 ! R16   R(7,14)                 1.101          estimate D2E/DX2                !
 ! R17   R(8,14)                 2.1379         estimate D2E/DX2                !
 ! R18   R(8,15)                 1.0979         estimate D2E/DX2                !
 ! R19   R(9,16)                 0.9846         estimate D2E/DX2                !
 ! R20   R(10,27)                1.4264         estimate D2E/DX2                !
 ! R21   R(13,17)                1.5127         estimate D2E/DX2                !
 ! R22   R(13,18)                1.1272         estimate D2E/DX2                !
 ! R23   R(13,19)                1.1272         estimate D2E/DX2                !
 ! R24   R(17,20)                1.684          estimate D2E/DX2                !
 ! R25   R(17,21)                1.1256         estimate D2E/DX2                !
 ! R26   R(17,22)                1.1257         estimate D2E/DX2                !
 ! R27   R(20,23)                1.3775         estimate D2E/DX2                !
 ! R28   R(20,24)                1.3779         estimate D2E/DX2                !
 ! R29   R(20,25)                1.6597         estimate D2E/DX2                !
 ! R30   R(25,26)                0.953          estimate D2E/DX2                !
 ! R31   R(27,28)                1.1186         estimate D2E/DX2                !
 ! R32   R(27,29)                1.1169         estimate D2E/DX2                !
 ! R33   R(27,30)                1.1171         estimate D2E/DX2                !
 ! A1    A(2,1,3)              108.2714         estimate D2E/DX2                !
 ! A2    A(2,1,10)             130.0236         estimate D2E/DX2                !
 ! A3    A(3,1,10)             121.7042         estimate D2E/DX2                !
 ! A4    A(1,2,9)              109.1238         estimate D2E/DX2                !
 ! A5    A(1,2,11)             129.9869         estimate D2E/DX2                !
 ! A6    A(9,2,11)             120.8654         estimate D2E/DX2                !
 ! A7    A(1,3,4)              105.3483         estimate D2E/DX2                !
 ! A8    A(1,3,5)              134.5403         estimate D2E/DX2                !
 ! A9    A(4,3,5)              120.1114         estimate D2E/DX2                !
 ! A10   A(3,4,8)              120.1253         estimate D2E/DX2                !
 ! A11   A(3,4,9)              108.7093         estimate D2E/DX2                !
 ! A12   A(8,4,9)              131.1407         estimate D2E/DX2                !
 ! A13   A(3,5,6)              119.2452         estimate D2E/DX2                !
 ! A14   A(3,5,12)             119.7701         estimate D2E/DX2                !
 ! A15   A(6,5,12)             120.9847         estimate D2E/DX2                !
 ! A16   A(5,6,7)              120.1993         estimate D2E/DX2                !
 ! A17   A(5,6,13)             117.2496         estimate D2E/DX2                !
 ! A18   A(5,6,14)             146.245          estimate D2E/DX2                !
 ! A19   A(7,6,13)             122.551          estimate D2E/DX2                !
 ! A20   A(13,6,14)             96.5053         estimate D2E/DX2                !
 ! A21   A(6,7,8)              122.1576         estimate D2E/DX2                !
 ! A22   A(4,8,7)              118.1611         estimate D2E/DX2                !
 ! A23   A(4,8,14)             145.1856         estimate D2E/DX2                !
 ! A24   A(4,8,15)             120.9619         estimate D2E/DX2                !
 ! A25   A(7,8,15)             120.877          estimate D2E/DX2                !
 ! A26   A(14,8,15)             93.8525         estimate D2E/DX2                !
 ! A27   A(2,9,4)              108.4661         estimate D2E/DX2                !
 ! A28   A(2,9,16)             124.511          estimate D2E/DX2                !
 ! A29   A(4,9,16)             124.9441         estimate D2E/DX2                !
 ! A30   A(1,10,27)            114.1929         estimate D2E/DX2                !
 ! A31   A(6,13,17)            115.2389         estimate D2E/DX2                !
 ! A32   A(6,13,18)            108.1953         estimate D2E/DX2                !
 ! A33   A(6,13,19)            108.2355         estimate D2E/DX2                !
 ! A34   A(17,13,18)           108.6807         estimate D2E/DX2                !
 ! A35   A(17,13,19)           108.7012         estimate D2E/DX2                !
 ! A36   A(18,13,19)           107.5354         estimate D2E/DX2                !
 ! A37   A(6,14,8)              69.0873         estimate D2E/DX2                !
 ! A38   A(13,17,20)           112.3432         estimate D2E/DX2                !
 ! A39   A(13,17,21)           108.6538         estimate D2E/DX2                !
 ! A40   A(13,17,22)           108.7076         estimate D2E/DX2                !
 ! A41   A(20,17,21)           110.9872         estimate D2E/DX2                !
 ! A42   A(20,17,22)           110.8789         estimate D2E/DX2                !
 ! A43   A(21,17,22)           104.9715         estimate D2E/DX2                !
 ! A44   A(17,20,23)           113.147          estimate D2E/DX2                !
 ! A45   A(17,20,24)           113.2588         estimate D2E/DX2                !
 ! A46   A(17,20,25)            97.9443         estimate D2E/DX2                !
 ! A47   A(23,20,24)           120.067          estimate D2E/DX2                !
 ! A48   A(23,20,25)           104.6071         estimate D2E/DX2                !
 ! A49   A(24,20,25)           104.3042         estimate D2E/DX2                !
 ! A50   A(20,25,26)           118.1369         estimate D2E/DX2                !
 ! A51   A(10,27,28)           103.6245         estimate D2E/DX2                !
 ! A52   A(10,27,29)           110.4329         estimate D2E/DX2                !
 ! A53   A(10,27,30)           110.4941         estimate D2E/DX2                !
 ! A54   A(28,27,29)           110.9384         estimate D2E/DX2                !
 ! A55   A(28,27,30)           110.9123         estimate D2E/DX2                !
 ! A56   A(29,27,30)           110.2746         estimate D2E/DX2                !
 ! D1    D(3,1,2,9)              1.7681         estimate D2E/DX2                !
 ! D2    D(3,1,2,11)           179.9651         estimate D2E/DX2                !
 ! D3    D(10,1,2,9)          -177.9202         estimate D2E/DX2                !
 ! D4    D(10,1,2,11)            0.2768         estimate D2E/DX2                !
 ! D5    D(2,1,3,4)             -0.0506         estimate D2E/DX2                !
 ! D6    D(2,1,3,5)            179.9556         estimate D2E/DX2                !
 ! D7    D(10,1,3,4)           179.6689         estimate D2E/DX2                !
 ! D8    D(10,1,3,5)            -0.3249         estimate D2E/DX2                !
 ! D9    D(2,1,10,27)            0.426          estimate D2E/DX2                !
 ! D10   D(3,1,10,27)         -179.2261         estimate D2E/DX2                !
 ! D11   D(1,2,9,4)             -2.8596         estimate D2E/DX2                !
 ! D12   D(1,2,9,16)          -167.1066         estimate D2E/DX2                !
 ! D13   D(11,2,9,4)           178.7497         estimate D2E/DX2                !
 ! D14   D(11,2,9,16)           14.5027         estimate D2E/DX2                !
 ! D15   D(1,3,4,8)            179.9178         estimate D2E/DX2                !
 ! D16   D(1,3,4,9)             -1.6937         estimate D2E/DX2                !
 ! D17   D(5,3,4,8)             -0.0873         estimate D2E/DX2                !
 ! D18   D(5,3,4,9)            178.3012         estimate D2E/DX2                !
 ! D19   D(1,3,5,6)           -179.8704         estimate D2E/DX2                !
 ! D20   D(1,3,5,12)             0.1113         estimate D2E/DX2                !
 ! D21   D(4,3,5,6)              0.1365         estimate D2E/DX2                !
 ! D22   D(4,3,5,12)          -179.8818         estimate D2E/DX2                !
 ! D23   D(3,4,8,7)              0.0406         estimate D2E/DX2                !
 ! D24   D(3,4,8,14)             0.0866         estimate D2E/DX2                !
 ! D25   D(3,4,8,15)           179.9592         estimate D2E/DX2                !
 ! D26   D(9,4,8,7)           -177.9325         estimate D2E/DX2                !
 ! D27   D(9,4,8,14)          -177.8865         estimate D2E/DX2                !
 ! D28   D(9,4,8,15)             1.9861         estimate D2E/DX2                !
 ! D29   D(3,4,9,2)              2.8091         estimate D2E/DX2                !
 ! D30   D(3,4,9,16)           166.9711         estimate D2E/DX2                !
 ! D31   D(8,4,9,2)           -179.0418         estimate D2E/DX2                !
 ! D32   D(8,4,9,16)           -14.8798         estimate D2E/DX2                !
 ! D33   D(3,5,6,7)             -0.1416         estimate D2E/DX2                !
 ! D34   D(3,5,6,13)           179.8427         estimate D2E/DX2                !
 ! D35   D(3,5,6,14)            -0.2282         estimate D2E/DX2                !
 ! D36   D(12,5,6,7)           179.8769         estimate D2E/DX2                !
 ! D37   D(12,5,6,13)           -0.1388         estimate D2E/DX2                !
 ! D38   D(12,5,6,14)          179.7903         estimate D2E/DX2                !
 ! D39   D(5,6,7,8)              0.0981         estimate D2E/DX2                !
 ! D40   D(13,6,7,8)          -179.8852         estimate D2E/DX2                !
 ! D41   D(5,6,13,17)         -179.4354         estimate D2E/DX2                !
 ! D42   D(5,6,13,18)          -57.5867         estimate D2E/DX2                !
 ! D43   D(5,6,13,19)           58.6587         estimate D2E/DX2                !
 ! D44   D(7,6,13,17)            0.5484         estimate D2E/DX2                !
 ! D45   D(7,6,13,18)          122.3971         estimate D2E/DX2                !
 ! D46   D(7,6,13,19)         -121.3575         estimate D2E/DX2                !
 ! D47   D(14,6,13,17)           0.6042         estimate D2E/DX2                !
 ! D48   D(14,6,13,18)         122.4529         estimate D2E/DX2                !
 ! D49   D(14,6,13,19)        -121.3017         estimate D2E/DX2                !
 ! D50   D(5,6,14,8)             0.1637         estimate D2E/DX2                !
 ! D51   D(13,6,14,8)         -179.8996         estimate D2E/DX2                !
 ! D52   D(6,7,8,4)             -0.0466         estimate D2E/DX2                !
 ! D53   D(6,7,8,15)          -179.9653         estimate D2E/DX2                !
 ! D54   D(4,8,14,6)            -0.0827         estimate D2E/DX2                !
 ! D55   D(15,8,14,6)         -179.9732         estimate D2E/DX2                !
 ! D56   D(1,10,27,28)         179.6893         estimate D2E/DX2                !
 ! D57   D(1,10,27,29)         -61.4489         estimate D2E/DX2                !
 ! D58   D(1,10,27,30)          60.8285         estimate D2E/DX2                !
 ! D59   D(6,13,17,20)         178.7575         estimate D2E/DX2                !
 ! D60   D(6,13,17,21)         -58.0502         estimate D2E/DX2                !
 ! D61   D(6,13,17,22)          55.6647         estimate D2E/DX2                !
 ! D62   D(18,13,17,20)         57.1706         estimate D2E/DX2                !
 ! D63   D(18,13,17,21)       -179.637          estimate D2E/DX2                !
 ! D64   D(18,13,17,22)        -65.9221         estimate D2E/DX2                !
 ! D65   D(19,13,17,20)        -59.5877         estimate D2E/DX2                !
 ! D66   D(19,13,17,21)         63.6047         estimate D2E/DX2                !
 ! D67   D(19,13,17,22)        177.3196         estimate D2E/DX2                !
 ! D68   D(13,17,20,23)        -70.6749         estimate D2E/DX2                !
 ! D69   D(13,17,20,24)         70.2956         estimate D2E/DX2                !
 ! D70   D(13,17,20,25)        179.6562         estimate D2E/DX2                !
 ! D71   D(21,17,20,23)        167.4512         estimate D2E/DX2                !
 ! D72   D(21,17,20,24)        -51.5782         estimate D2E/DX2                !
 ! D73   D(21,17,20,25)         57.7824         estimate D2E/DX2                !
 ! D74   D(22,17,20,23)         51.1901         estimate D2E/DX2                !
 ! D75   D(22,17,20,24)       -167.8393         estimate D2E/DX2                !
 ! D76   D(22,17,20,25)        -58.4787         estimate D2E/DX2                !
 ! D77   D(17,20,25,26)       -176.4579         estimate D2E/DX2                !
 ! D78   D(23,20,25,26)         67.0211         estimate D2E/DX2                !
 ! D79   D(24,20,25,26)        -59.9034         estimate D2E/DX2                !
 --------------------------------------------------------------------------------
 Trust Radius=3.00D-01 FncErr=1.00D-07 GrdErr=1.00D-06
 Number of steps in this run= 178 maximum allowed number of steps= 180.
 GradGradGradGradGradGradGradGradGradGradGradGradGradGradGradGradGradGrad

                          Input orientation:                          
 ---------------------------------------------------------------------
 Center     Atomic     Atomic              Coordinates (Angstroms)
 Number     Number      Type              X           Y           Z
 ---------------------------------------------------------------------
    1          6             0       -3.767400    0.483700   -0.041400
    2          6             0       -4.621400   -0.617200   -0.082800
    3          6             0       -2.400400   -0.001200   -0.034300
    4          6             0       -2.505600   -1.444500   -0.072600
    5          6             0       -1.150300    0.606400   -0.000900
    6          6             0       -0.004100   -0.190700   -0.007700
    7          6             0       -0.117400   -1.594900   -0.045000
    8          6             0       -1.346300   -2.235300   -0.078000
    9          7             0       -3.855400   -1.795100   -0.061700
   10          8             0       -4.056300    1.820400   -0.004700
   11          1             0       -5.709800   -0.658600   -0.099200
   12          1             0       -1.076900    1.703900    0.030100
   13          6             0        1.311200    0.506300    0.025400
   14         35             0        0.791300   -2.216600   -0.048300
   15          1             0       -1.410100   -3.331000   -0.106200
   16          1             0       -4.206600   -2.692600   -0.263200
   17          6             0        2.522200   -0.400000    0.003100
   18          1             0        1.363800    1.201000   -0.860700
   19          1             0        1.351200    1.140100    0.956700
   20         16             0        3.968100    0.463300    0.009000
   21          1             0        2.465800   -1.098000    0.884400
   22          1             0        2.457100   -1.067400   -0.901100
   23          8             0        4.211100    1.120700   -1.176900
   24          8             0        4.223500    1.088700    1.209900
   25          8             0        5.007700   -0.830300   -0.008900
   26          1             0        5.943200   -0.655800    0.042400
   27          6             0       -5.451500    2.117000   -0.000500
   28          1             0       -5.483200    3.234500    0.036700
   29          1             0       -5.934200    1.734800   -0.932400
   30          1             0       -5.942800    1.674000    0.899600
 ---------------------------------------------------------------------
                    Distance matrix (angstroms):
                    1          2          3          4          5
     1  C    0.000000
     2  C    1.393919   0.000000
     3  C    1.450471   2.305352   0.000000
     4  C    2.304575   2.271814   1.447636   0.000000
     5  C    2.620288   3.681364   1.390339   2.459303   0.000000
     6  C    3.823399   4.637564   2.403928   2.798880   1.396134
     7  C    4.200368   4.609050   2.784256   2.393090   2.431985
     8  C    3.640883   3.653019   2.470676   1.403343   2.849495
     9  N    2.280589   1.405222   2.309947   1.394632   3.617798
    10  O    1.368056   2.503464   2.461932   3.615087   3.149388
    11  H    2.254131   1.089311   3.374687   3.299279   4.732751
    12  H    2.955130   4.238364   2.159436   3.458924   1.100388
    13  C    5.079090   6.039015   3.746611   4.287562   2.463675
    14  Br   5.298435   5.644164   3.885247   3.386189   3.426571
    15  H    4.484752   4.204486   3.474684   2.181773   3.947367
    16  H    3.214183   2.124121   3.249367   2.118368   4.504794
    17  C    6.351533   7.147417   4.938869   5.135707   3.807901
    18  H    5.245473   6.303459   4.037007   4.753107   2.722775
    19  H    5.256152   6.311942   4.044645   4.755473   2.731178
    20  S    7.735691   8.657680   6.385564   6.749456   5.120410
    21  H    6.497050   7.169034   5.072167   5.074518   4.094498
    22  H    6.472202   7.139850   5.048112   5.045494   4.077414
    23  O    8.084033   9.068098   6.802656   7.274186   5.512902
    24  O    8.110873   9.100188   6.827296   7.303608   5.529591
    25  O    8.872995   9.631741   7.454395   7.538632   6.323380
    26  H    9.777588  10.565412   8.369590   8.486312   7.205051
    27  C    2.346388   2.858617   3.714448   4.622533   4.558754
    28  H    3.242988   3.948743   4.469726   5.547169   5.067775
    29  H    2.655966   2.824388   4.038319   4.754209   5.002667
    30  H    2.652293   2.821490   4.028283   4.741789   4.991866
                    6          7          8          9         10
     6  C    0.000000
     7  C    1.409257   0.000000
     8  C    2.446800   1.386144   0.000000
     9  N    4.172473   3.743395   2.547474   0.000000
    10  O    4.523810   5.213524   4.878337   3.621526   0.000000
    11  H    5.725584   5.670497   4.639673   2.175279   2.981348
    12  H    2.177576   3.436330   3.949881   4.468947   2.981880
    13  C    1.488932   2.541829   3.819603   5.656658   5.526104
    14  Br   2.176828   1.101026   2.137888   4.665797   6.308605
    15  H    3.442096   2.165378   1.097918   2.887986   5.792202
    16  H    4.897529   4.239589   2.902540   0.984606   4.522895
    17  C    2.534978   2.897859   4.282545   6.528728   6.943119
    18  H    2.129692   3.267473   4.445832   6.070837   5.522126
    19  H    2.130243   3.261965   4.443021   6.063103   5.534271
    20  S    4.025713   4.574977   5.960944   8.143250   8.138360
    21  H    2.778388   2.789913   4.092893   6.429512   7.200371
    22  H    2.761208   2.763913   4.062922   6.409508   7.181038
    23  O    4.566696   5.233698   6.584452   8.649508   8.379352
    24  O    4.581704   5.255463   6.612892   8.671903   8.400341
    25  O    5.052448   5.181946   6.507850   8.915614   9.443639
    26  H    5.965669   6.133549   7.459633   9.865161  10.301640
    27  C    5.916054   6.498677   5.983409   4.225613   1.426384
    28  H    6.461772   7.219528   6.858995   5.287371   2.009337
    29  H    6.303071   6.760883   6.127032   4.188045   2.096297
    30  H    6.290346   6.746352   6.112785   4.161249   2.097158
                   11         12         13         14         15
    11  H    0.000000
    12  H    5.202104   0.000000
    13  C    7.118073   2.671571   0.000000
    14  Br   6.685376   4.343574   2.773069   0.000000
    15  H    5.062528   5.047754   4.706130   2.468077   0.000000
    16  H    2.534494   5.404652   6.384541   5.025113   2.872737
    17  C    8.236696   4.169010   1.512745   2.509720   4.905679
    18  H    7.353490   2.646403   1.127186   3.559177   5.366825
    19  H    7.362606   2.659347   1.127219   3.548373   5.361461
    20  S    9.743311   5.195340   2.657299   4.156586   6.582934
    21  H    8.246270   4.596868   2.155171   2.219267   4.581504
    22  H    8.216351   4.586545   2.155927   2.196092   4.550933
    23  O   10.136647   5.455265   3.198817   4.909821   7.249960
    24  O   10.170410   5.464855   3.197455   4.928293   7.280338
    25  O   10.719256   6.591362   3.930876   4.438627   6.888478
    26  H   11.653861   7.406088   4.775583   5.383902   7.826225
    27  C    2.789340   4.394168   6.951916   7.599666   6.784157
    28  H    3.902056   4.664575   7.321685   8.312104   7.727636
    29  H    2.544198   4.951841   7.410966   7.850321   6.841960
    30  H    2.548120   4.943067   7.399207   7.834755   6.826934
                   16         17         18         19         20
    16  H    0.000000
    17  C    7.113626   0.000000
    18  H    6.822498   2.156674   0.000000
    19  H    6.860531   2.156966   1.818464   0.000000
    20  S    8.766956   1.684027   2.843054   2.864325   0.000000
    21  H    6.955621   1.125644   3.089527   2.501330   2.336854
    22  H    6.888620   1.125717   2.518447   3.089902   2.335475
    23  O    9.286214   2.560725   2.865929   3.568144   1.377528
    24  O    9.356006   2.562619   3.532404   2.883897   1.377866
    25  O    9.404050   2.522501   4.257904   4.264370   1.659665
    26  H   10.356659   3.430775   5.023365   5.014745   2.270357
    27  C    4.975042   8.361531   6.930174   6.938825   9.563664
    28  H    6.070433   8.791880   7.198740   7.207075   9.849233
    29  H    4.799406   8.771729   7.317847   7.549796  10.027886
    30  H    4.840836   8.761359   7.530524   7.313737  10.024216
                   21         22         23         24         25
    21  H    0.000000
    22  H    1.785783   0.000000
    23  O    3.495377   2.817865   0.000000
    24  O    2.824379   3.496464   2.387047   0.000000
    25  O    2.707564   2.712526   2.409398   2.404788   0.000000
    26  H    3.605110   3.634900   2.764564   2.713615   0.953017
    27  C    8.590862   8.573065   9.784803   9.804494  10.866532
    28  H    9.092621   9.079327   9.996021  10.010039  11.250940
    29  H    9.049062   8.846876  10.166809  10.401239  11.276425
    30  H    8.853743   9.017545  10.378809  10.187861  11.269886
                   26         27         28         29         30
    26  H    0.000000
    27  C   11.727295   0.000000
    28  H   12.070505   1.118568   0.000000
    29  H   12.154745   1.116922   1.841645   0.000000
    30  H   12.142477   1.117052   1.841464   1.833029   0.000000
 Stoichiometry    C11H12BrNO4S
 Framework group  C1[X(C11H12BrNO4S)]
 Deg. of freedom    84
 Full point group                 C1      NOp   1
 Largest Abelian subgroup         C1      NOp   1
 Largest concise Abelian subgroup C1      NOp   1
                         Standard orientation:                         
 ---------------------------------------------------------------------
 Center     Atomic     Atomic              Coordinates (Angstroms)
 Number     Number      Type              X           Y           Z
 ---------------------------------------------------------------------
    1          6             0        3.903662    0.779967    0.009849
    2          6             0        4.718970   -0.350566    0.023205
    3          6             0        2.520562    0.343117    0.001884
    4          6             0        2.575577   -1.103449    0.010105
    5          6             0        1.292242    0.994354   -0.010906
    6          6             0        0.118995    0.237600   -0.012783
    7          6             0        0.183463   -1.170160   -0.004819
    8          6             0        1.389450   -1.853425    0.007043
    9          7             0        3.912239   -1.500450   -0.016820
   10          8             0        4.238792    2.106291   -0.001538
   11          1             0        5.805341   -0.430096    0.031590
   12          1             0        1.256988    2.094148   -0.019076
   13          6             0       -1.171364    0.980424   -0.023024
   14         35             0       -0.746335   -1.759839   -0.008189
   15          1             0        1.415156   -2.951028    0.012514
   16          1             0        4.233097   -2.413568    0.164052
   17          6             0       -2.413088    0.116491   -0.011200
   18          1             0       -1.194494    1.658156    0.877360
   19          1             0       -1.194701    1.634255   -0.940947
   20         16             0       -3.828004    1.029459    0.009998
   21          1             0       -2.386247   -0.564770   -0.906877
   22          1             0       -2.365997   -0.571228    0.878780
   23          8             0       -4.040955    1.670372    1.210608
   24          8             0       -4.068484    1.687929   -1.176216
   25          8             0       -4.911971   -0.227324    0.008410
   26          1             0       -5.841100   -0.019399   -0.033164
   27          6             0        5.643440    2.354247   -0.008890
   28          1             0        5.713881    3.470499   -0.023544
   29          1             0        6.117980    1.936413    0.911838
   30          1             0        6.113693    1.913050   -0.921037
 ---------------------------------------------------------------------
 Rotational constants (GHZ):      0.6793148      0.1510867      0.1267874
 Standard basis: 6-31G(d) (6D, 7F)
 There are   313 symmetry adapted basis functions of A   symmetry.
 Integral buffers will be    262144 words long.
 Raffenetti 2 integral format.
 Two-electron integral symmetry is turned on.
   313 basis functions,   631 primitive gaussians,   313 cartesian basis functions
    84 alpha electrons       84 beta electrons
       nuclear repulsion energy      1997.9998117194 Hartrees.
 NAtoms=   30 NActive=   30 NUniq=   30 SFac= 1.00D+00 NAtFMM=   60 Big=F
 One-electron integrals computed using PRISM.
 NBasis=   313 RedAO= T  NBF=   313
 NBsUse=   313 1.00D-06 NBFU=   313
 Harris functional with IExCor=  402 diagonalized for initial guess.
 ExpMin= 1.17D-01 ExpMax= 5.74D+05 ExpMxC= 5.74D+03 IAcc=2 IRadAn=         4 AccDes= 0.00D+00
 HarFok:  IExCor= 402 AccDes= 0.00D+00 IRadAn=         4 IDoV=1
 ScaDFX=  1.000000  1.000000  1.000000  1.000000
 Initial guess orbital symmetries:
       Occupied  (A) (A) (A) (A) (A) (A) (A) (A) (A) (A) (A) (A)
                 (A) (A) (A) (A) (A) (A) (A) (A) (A) (A) (A) (A)
                 (A) (A) (A) (A) (A) (A) (A) (A) (A) (A) (A) (A)
                 (A) (A) (A) (A) (A) (A) (A) (A) (A) (A) (A) (A)
                 (A) (A) (A) (A) (A) (A) (A) (A) (A) (A) (A) (A)
                 (A) (A) (A) (A) (A) (A) (A) (A) (A) (A) (A) (A)
                 (A) (A) (A) (A) (A) (A) (A) (A) (A) (A) (A) (A)
       Virtual   (A) (A) (A) (A) (A) (A) (A) (A) (A) (A) (A) (A)
                 (A) (A) (A) (A) (A) (A) (A) (A) (A) (A) (A) (A)
                 (A) (A) (A) (A) (A) (A) (A) (A) (A) (A) (A) (A)
                 (A) (A) (A) (A) (A) (A) (A) (A) (A) (A) (A) (A)
                 (A) (A) (A) (A) (A) (A) (A) (A) (A) (A) (A) (A)
                 (A) (A) (A) (A) (A) (A) (A) (A) (A) (A) (A) (A)
                 (A) (A) (A) (A) (A) (A) (A) (A) (A) (A) (A) (A)
                 (A) (A) (A) (A) (A) (A) (A) (A) (A) (A) (A) (A)
                 (A) (A) (A) (A) (A) (A) (A) (A) (A) (A) (A) (A)
                 (A) (A) (A) (A) (A) (A) (A) (A) (A) (A) (A) (A)
                 (A) (A) (A) (A) (A) (A) (A) (A) (A) (A) (A) (A)
                 (A) (A) (A) (A) (A) (A) (A) (A) (A) (A) (A) (A)
                 (A) (A) (A) (A) (A) (A) (A) (A) (A) (A) (A) (A)
                 (A) (A) (A) (A) (A) (A) (A) (A) (A) (A) (A) (A)
                 (A) (A) (A) (A) (A) (A) (A) (A) (A) (A) (A) (A)
                 (A) (A) (A) (A) (A) (A) (A) (A) (A) (A) (A) (A)
                 (A) (A) (A) (A) (A) (A) (A) (A) (A) (A) (A) (A)
                 (A) (A) (A) (A) (A) (A) (A) (A) (A) (A) (A) (A)
                 (A) (A) (A) (A) (A) (A) (A) (A) (A) (A) (A) (A)
                 (A)
 The electronic state of the initial guess is 1-A.
 Requested convergence on RMS density matrix=1.00D-08 within 128 cycles.
 Requested convergence on MAX density matrix=1.00D-06.
 Requested convergence on             energy=1.00D-06.
 No special actions if energy rises.
 Integral accuracy reduced to 1.0D-05 until final iterations.
 Initial convergence to 1.0D-05 achieved.  Increase integral accuracy.
 SCF Done:  E(RB+HF-LYP) =  -3750.64245933     A.U. after   16 cycles
             Convg  =    0.4195D-08             -V/T =  2.0047
             S**2   =   0.0000

 **********************************************************************

            Population analysis using the SCF density.

 **********************************************************************

 Orbital symmetries:
       Occupied  (A) (A) (A) (A) (A) (A) (A) (A) (A) (A) (A) (A)
                 (A) (A) (A) (A) (A) (A) (A) (A) (A) (A) (A) (A)
                 (A) (A) (A) (A) (A) (A) (A) (A) (A) (A) (A) (A)
                 (A) (A) (A) (A) (A) (A) (A) (A) (A) (A) (A) (A)
                 (A) (A) (A) (A) (A) (A) (A) (A) (A) (A) (A) (A)
                 (A) (A) (A) (A) (A) (A) (A) (A) (A) (A) (A) (A)
                 (A) (A) (A) (A) (A) (A) (A) (A) (A) (A) (A) (A)
       Virtual   (A) (A) (A) (A) (A) (A) (A) (A) (A) (A) (A) (A)
                 (A) (A) (A) (A) (A) (A) (A) (A) (A) (A) (A) (A)
                 (A) (A) (A) (A) (A) (A) (A) (A) (A) (A) (A) (A)
                 (A) (A) (A) (A) (A) (A) (A) (A) (A) (A) (A) (A)
                 (A) (A) (A) (A) (A) (A) (A) (A) (A) (A) (A) (A)
                 (A) (A) (A) (A) (A) (A) (A) (A) (A) (A) (A) (A)
                 (A) (A) (A) (A) (A) (A) (A) (A) (A) (A) (A) (A)
                 (A) (A) (A) (A) (A) (A) (A) (A) (A) (A) (A) (A)
                 (A) (A) (A) (A) (A) (A) (A) (A) (A) (A) (A) (A)
                 (A) (A) (A) (A) (A) (A) (A) (A) (A) (A) (A) (A)
                 (A) (A) (A) (A) (A) (A) (A) (A) (A) (A) (A) (A)
                 (A) (A) (A) (A) (A) (A) (A) (A) (A) (A) (A) (A)
                 (A) (A) (A) (A) (A) (A) (A) (A) (A) (A) (A) (A)
                 (A) (A) (A) (A) (A) (A) (A) (A) (A) (A) (A) (A)
                 (A) (A) (A) (A) (A) (A) (A) (A) (A) (A) (A) (A)
                 (A) (A) (A) (A) (A) (A) (A) (A) (A) (A) (A) (A)
                 (A) (A) (A) (A) (A) (A) (A) (A) (A) (A) (A) (A)
                 (A) (A) (A) (A) (A) (A) (A) (A) (A) (A) (A) (A)
                 (A) (A) (A) (A) (A) (A) (A) (A) (A) (A) (A) (A)
                 (A)
 The electronic state is 1-A.
 Alpha  occ. eigenvalues -- -482.93495 -89.10939 -61.91617 -56.43218 -56.42857
 Alpha  occ. eigenvalues --  -56.42851 -19.17700 -19.16495 -19.13663 -19.13623
 Alpha  occ. eigenvalues --  -14.37625 -10.27873 -10.24635 -10.23716 -10.22850
 Alpha  occ. eigenvalues --  -10.22779 -10.21917 -10.21481 -10.19553 -10.18993
 Alpha  occ. eigenvalues --  -10.18311 -10.18179  -8.66424  -8.13897  -6.63026
 Alpha  occ. eigenvalues --   -6.59839  -6.59458  -6.10462  -6.10270  -6.10086
 Alpha  occ. eigenvalues --   -2.75882  -2.73410  -2.73138  -2.70887  -2.70882
 Alpha  occ. eigenvalues --   -1.16837  -1.08623  -1.05807  -1.03833  -1.01821
 Alpha  occ. eigenvalues --   -0.96735  -0.85185  -0.82538  -0.77570  -0.77009
 Alpha  occ. eigenvalues --   -0.70435  -0.69749  -0.68651  -0.66479  -0.61859
 Alpha  occ. eigenvalues --   -0.58542  -0.57535  -0.55528  -0.55429  -0.54521
 Alpha  occ. eigenvalues --   -0.50682  -0.50184  -0.49230  -0.49127  -0.48283
 Alpha  occ. eigenvalues --   -0.46505  -0.45075  -0.44849  -0.44607  -0.43189
 Alpha  occ. eigenvalues --   -0.42712  -0.40969  -0.40620  -0.39859  -0.39187
 Alpha  occ. eigenvalues --   -0.38238  -0.37044  -0.35430  -0.34666  -0.33568
 Alpha  occ. eigenvalues --   -0.33234  -0.32307  -0.31956  -0.29946  -0.28565
 Alpha  occ. eigenvalues --   -0.24856  -0.22292  -0.20323  -0.16831
 Alpha virt. eigenvalues --   -0.02493  -0.00543   0.04462   0.06814   0.07468
 Alpha virt. eigenvalues --    0.07774   0.09408   0.10161   0.11106   0.11287
 Alpha virt. eigenvalues --    0.11362   0.12843   0.12873   0.14402   0.14975
 Alpha virt. eigenvalues --    0.15732   0.16014   0.16767   0.16971   0.17892
 Alpha virt. eigenvalues --    0.18322   0.20983   0.21539   0.22257   0.23791
 Alpha virt. eigenvalues --    0.24305   0.26555   0.27680   0.29498   0.31171
 Alpha virt. eigenvalues --    0.32110   0.35304   0.38100   0.38724   0.40076
 Alpha virt. eigenvalues --    0.40246   0.41702   0.43544   0.44328   0.47074
 Alpha virt. eigenvalues --    0.48318   0.51258   0.51384   0.51822   0.53108
 Alpha virt. eigenvalues --    0.53722   0.54269   0.55351   0.55632   0.56309
 Alpha virt. eigenvalues --    0.58219   0.58373   0.58511   0.59272   0.59754
 Alpha virt. eigenvalues --    0.62308   0.62351   0.63087   0.64362   0.65317
 Alpha virt. eigenvalues --    0.66310   0.67887   0.68844   0.69184   0.70217
 Alpha virt. eigenvalues --    0.71907   0.75458   0.76263   0.76677   0.77159
 Alpha virt. eigenvalues --    0.79198   0.79633   0.80156   0.80389   0.81712
 Alpha virt. eigenvalues --    0.82086   0.82216   0.82966   0.83573   0.84978
 Alpha virt. eigenvalues --    0.85724   0.85921   0.86564   0.88044   0.88554
 Alpha virt. eigenvalues --    0.89238   0.91775   0.93783   0.94852   0.95699
 Alpha virt. eigenvalues --    0.96040   0.96489   0.96673   0.98989   0.99110
 Alpha virt. eigenvalues --    1.02961   1.03116   1.05106   1.05293   1.06406
 Alpha virt. eigenvalues --    1.06860   1.08784   1.10488   1.11473   1.13573
 Alpha virt. eigenvalues --    1.14404   1.16453   1.21337   1.22266   1.23236
 Alpha virt. eigenvalues --    1.24522   1.26361   1.26820   1.29744   1.32243
 Alpha virt. eigenvalues --    1.32427   1.33402   1.34067   1.36049   1.38591
 Alpha virt. eigenvalues --    1.39076   1.40765   1.40851   1.42412   1.44653
 Alpha virt. eigenvalues --    1.46747   1.48316   1.50720   1.54842   1.56181
 Alpha virt. eigenvalues --    1.57158   1.60047   1.63350   1.65718   1.69067
 Alpha virt. eigenvalues --    1.71311   1.71806   1.73667   1.75154   1.75819
 Alpha virt. eigenvalues --    1.77158   1.78070   1.79908   1.80132   1.81790
 Alpha virt. eigenvalues --    1.82585   1.84311   1.84638   1.86183   1.86233
 Alpha virt. eigenvalues --    1.89070   1.89144   1.90838   1.91597   1.92879
 Alpha virt. eigenvalues --    1.95835   1.97549   1.98074   2.01108   2.02908
 Alpha virt. eigenvalues --    2.03665   2.06290   2.07894   2.09241   2.10739
 Alpha virt. eigenvalues --    2.13717   2.13844   2.14645   2.15449   2.17465
 Alpha virt. eigenvalues --    2.18014   2.20869   2.21973   2.24855   2.24965
 Alpha virt. eigenvalues --    2.25881   2.26562   2.30200   2.31009   2.34563
 Alpha virt. eigenvalues --    2.35197   2.37933   2.38508   2.39819   2.40550
 Alpha virt. eigenvalues --    2.41176   2.44234   2.47419   2.53483   2.54269
 Alpha virt. eigenvalues --    2.55878   2.56633   2.57515   2.63329   2.66866
 Alpha virt. eigenvalues --    2.68043   2.70379   2.72649   2.79811   2.80773
 Alpha virt. eigenvalues --    2.84433   2.85815   2.90436   2.92969   2.94888
 Alpha virt. eigenvalues --    2.96878   3.04869   3.14041   3.29049   3.40767
 Alpha virt. eigenvalues --    3.78113   3.92687   3.93543   3.99967   4.07470
 Alpha virt. eigenvalues --    4.07751   4.12546   4.16064   4.18714   4.21615
 Alpha virt. eigenvalues --    4.25610   4.32795   4.39635   4.46526   4.51635
 Alpha virt. eigenvalues --    4.69558   4.85370   8.77680  76.59209
          Condensed to atoms (all electrons):
              1          2          3          4          5          6
     1  C    4.804106   0.437126   0.407862  -0.005575  -0.093111   0.005921
     2  C    0.437126   5.178464  -0.042083  -0.108233   0.016626  -0.000086
     3  C    0.407862  -0.042083   4.846330   0.476019   0.441607  -0.018822
     4  C   -0.005575  -0.108233   0.476019   4.735969  -0.048612  -0.028873
     5  C   -0.093111   0.016626   0.441607  -0.048612   5.323296   0.418327
     6  C    0.005921  -0.000086  -0.018822  -0.028873   0.418327   5.149767
     7  C    0.001458  -0.000275  -0.034666  -0.024576  -0.033999   0.519838
     8  C    0.012904   0.004205  -0.055133   0.408893  -0.084430  -0.055477
     9  N   -0.038126   0.274018  -0.044785   0.266254   0.010239   0.000138
    10  O    0.293186  -0.076249  -0.053458   0.003245   0.000666   0.000156
    11  H   -0.031533   0.364611   0.002264   0.004698  -0.000129   0.000003
    12  H   -0.006166   0.000093  -0.033971   0.004234   0.346840  -0.042072
    13  C   -0.000235   0.000004   0.003549  -0.000054  -0.083297   0.330329
    14  Br  -0.000043   0.000018   0.003592   0.019649   0.044241  -0.147389
    15  H   -0.000255   0.000016   0.003626  -0.021113   0.000273   0.005427
    16  H    0.003011  -0.030770   0.006125  -0.025400  -0.000075  -0.000015
    17  C    0.000002   0.000000  -0.000198   0.000006   0.006015  -0.013693
    18  H    0.000002   0.000000   0.000197   0.000025  -0.007180  -0.038200
    19  H    0.000001   0.000000   0.000063   0.000054  -0.007153  -0.037548
    20  S    0.000000   0.000000   0.000004   0.000000  -0.000076   0.001072
    21  H    0.000000   0.000000   0.000010  -0.000007  -0.000273  -0.007611
    22  H    0.000000   0.000000   0.000005   0.000000  -0.000255  -0.007218
    23  O    0.000000   0.000000   0.000000   0.000000  -0.000003  -0.000032
    24  O    0.000000   0.000000   0.000000   0.000000  -0.000002   0.000013
    25  O    0.000000   0.000000   0.000000   0.000000   0.000000  -0.000034
    26  H    0.000000   0.000000   0.000000   0.000000   0.000000   0.000002
    27  C   -0.048110  -0.011990   0.004334   0.000066  -0.000405  -0.000001
    28  H    0.003741  -0.000131   0.000012   0.000001  -0.000017   0.000000
    29  H   -0.004812   0.009014  -0.000301   0.000004   0.000029   0.000000
    30  H   -0.005123   0.009600  -0.000174  -0.000040   0.000039   0.000000
              7          8          9         10         11         12
     1  C    0.001458   0.012904  -0.038126   0.293186  -0.031533  -0.006166
     2  C   -0.000275   0.004205   0.274018  -0.076249   0.364611   0.000093
     3  C   -0.034666  -0.055133  -0.044785  -0.053458   0.002264  -0.033971
     4  C   -0.024576   0.408893   0.266254   0.003245   0.004698   0.004234
     5  C   -0.033999  -0.084430   0.010239   0.000666  -0.000129   0.346840
     6  C    0.519838  -0.055477   0.000138   0.000156   0.000003  -0.042072
     7  C    5.365150   0.491920   0.005054   0.000005   0.000001   0.003708
     8  C    0.491920   5.595055  -0.075334  -0.000080  -0.000104   0.000761
     9  N    0.005054  -0.075334   7.028643   0.002763  -0.043858  -0.000107
    10  O    0.000005  -0.000080   0.002763   8.200220  -0.002580   0.003224
    11  H    0.000001  -0.000104  -0.043858  -0.002580   0.555224  -0.000001
    12  H    0.003708   0.000761  -0.000107   0.003224  -0.000001   0.578304
    13  C    0.010908   0.013007  -0.000002  -0.000001   0.000000  -0.003478
    14  Br  -0.397406  -0.194144  -0.000938   0.000000   0.000000  -0.001196
    15  H   -0.043267   0.341911  -0.003639   0.000000   0.000002   0.000019
    16  H   -0.000180  -0.005816   0.327921  -0.000026  -0.001679   0.000004
    17  C   -0.012534  -0.000737   0.000000   0.000000   0.000000   0.000098
    18  H    0.002266  -0.000179   0.000000   0.000000   0.000000   0.002130
    19  H    0.002524  -0.000222   0.000000   0.000000   0.000000   0.002124
    20  S   -0.000712   0.000006   0.000000   0.000000   0.000000  -0.000020
    21  H    0.010075  -0.000116   0.000000   0.000000   0.000000   0.000016
    22  H    0.010192  -0.000168   0.000000   0.000000   0.000000   0.000017
    23  O    0.000018   0.000000   0.000000   0.000000   0.000000   0.000000
    24  O    0.000015   0.000000   0.000000   0.000000   0.000000   0.000000
    25  O    0.000027   0.000000   0.000000   0.000000   0.000000   0.000000
    26  H   -0.000001   0.000000   0.000000   0.000000   0.000000   0.000000
    27  C    0.000000   0.000005   0.000003   0.249809   0.003740  -0.000124
    28  H    0.000000   0.000000  -0.000001  -0.035163  -0.000054   0.000006
    29  H    0.000000   0.000000  -0.000155  -0.037567   0.000858   0.000004
    30  H    0.000000   0.000000  -0.000116  -0.037244   0.001143   0.000003
             13         14         15         16         17         18
     1  C   -0.000235  -0.000043  -0.000255   0.003011   0.000002   0.000002
     2  C    0.000004   0.000018   0.000016  -0.030770   0.000000   0.000000
     3  C    0.003549   0.003592   0.003626   0.006125  -0.000198   0.000197
     4  C   -0.000054   0.019649  -0.021113  -0.025400   0.000006   0.000025
     5  C   -0.083297   0.044241   0.000273  -0.000075   0.006015  -0.007180
     6  C    0.330329  -0.147389   0.005427  -0.000015  -0.013693  -0.038200
     7  C    0.010908  -0.397406  -0.043267  -0.000180  -0.012534   0.002266
     8  C    0.013007  -0.194144   0.341911  -0.005816  -0.000737  -0.000179
     9  N   -0.000002  -0.000938  -0.003639   0.327921   0.000000   0.000000
    10  O   -0.000001   0.000000   0.000000  -0.000026   0.000000   0.000000
    11  H    0.000000   0.000000   0.000002  -0.001679   0.000000   0.000000
    12  H   -0.003478  -0.001196   0.000019   0.000004   0.000098   0.002130
    13  C    5.334074  -0.129138  -0.000061   0.000000   0.277924   0.367255
    14  Br  -0.129138  35.739277   0.004095   0.000018  -0.068544  -0.001665
    15  H   -0.000061   0.004095   0.580265   0.002431  -0.000008   0.000002
    16  H    0.000000   0.000018   0.002431   0.398274   0.000000   0.000000
    17  C    0.277924  -0.068544  -0.000008   0.000000   5.694593  -0.044527
    18  H    0.367255  -0.001665   0.000002   0.000000  -0.044527   0.558996
    19  H    0.365827  -0.001917   0.000002   0.000000  -0.044043  -0.033209
    20  S   -0.018557   0.009224   0.000000   0.000000   0.168506  -0.001229
    21  H   -0.024674  -0.052243   0.000018   0.000000   0.353919   0.005180
    22  H   -0.026037  -0.053888   0.000017   0.000000   0.354257  -0.003510
    23  O   -0.004182  -0.000217   0.000000   0.000000  -0.059742   0.006035
    24  O   -0.003673  -0.000211   0.000000   0.000000  -0.059180  -0.000272
    25  O    0.001771  -0.000041   0.000000   0.000000  -0.054052   0.000006
    26  H   -0.000080   0.000014   0.000000   0.000000   0.003323   0.000001
    27  C    0.000000   0.000000   0.000000  -0.000005   0.000000   0.000000
    28  H    0.000000   0.000000   0.000000   0.000000   0.000000   0.000000
    29  H    0.000000   0.000000   0.000000  -0.000005   0.000000   0.000000
    30  H    0.000000   0.000000   0.000000   0.000008   0.000000   0.000000
             19         20         21         22         23         24
     1  C    0.000001   0.000000   0.000000   0.000000   0.000000   0.000000
     2  C    0.000000   0.000000   0.000000   0.000000   0.000000   0.000000
     3  C    0.000063   0.000004   0.000010   0.000005   0.000000   0.000000
     4  C    0.000054   0.000000  -0.000007   0.000000   0.000000   0.000000
     5  C   -0.007153  -0.000076  -0.000273  -0.000255  -0.000003  -0.000002
     6  C   -0.037548   0.001072  -0.007611  -0.007218  -0.000032   0.000013
     7  C    0.002524  -0.000712   0.010075   0.010192   0.000018   0.000015
     8  C   -0.000222   0.000006  -0.000116  -0.000168   0.000000   0.000000
     9  N    0.000000   0.000000   0.000000   0.000000   0.000000   0.000000
    10  O    0.000000   0.000000   0.000000   0.000000   0.000000   0.000000
    11  H    0.000000   0.000000   0.000000   0.000000   0.000000   0.000000
    12  H    0.002124  -0.000020   0.000016   0.000017   0.000000   0.000000
    13  C    0.365827  -0.018557  -0.024674  -0.026037  -0.004182  -0.003673
    14  Br  -0.001917   0.009224  -0.052243  -0.053888  -0.000217  -0.000211
    15  H    0.000002   0.000000   0.000018   0.000017   0.000000   0.000000
    16  H    0.000000   0.000000   0.000000   0.000000   0.000000   0.000000
    17  C   -0.044043   0.168506   0.353919   0.354257  -0.059742  -0.059180
    18  H   -0.033209  -0.001229   0.005180  -0.003510   0.006035  -0.000272
    19  H    0.561002  -0.001629  -0.003813   0.005200  -0.000187   0.005723
    20  S   -0.001629  13.439488  -0.011249  -0.011432   0.543883   0.542554
    21  H   -0.003813  -0.011249   0.526706  -0.032645   0.001624  -0.001236
    22  H    0.005200  -0.011432  -0.032645   0.528355  -0.001207   0.001623
    23  O   -0.000187   0.543883   0.001624  -0.001207   8.094474  -0.057130
    24  O    0.005723   0.542554  -0.001236   0.001623  -0.057130   8.099332
    25  O    0.000002   0.210241   0.000714   0.000653  -0.065638  -0.066326
    26  H    0.000001   0.003101   0.000014  -0.000009   0.001322   0.001680
    27  C    0.000000   0.000000   0.000000   0.000000   0.000000   0.000000
    28  H    0.000000   0.000000   0.000000   0.000000   0.000000   0.000000
    29  H    0.000000   0.000000   0.000000   0.000000   0.000000   0.000000
    30  H    0.000000   0.000000   0.000000   0.000000   0.000000   0.000000
             25         26         27         28         29         30
     1  C    0.000000   0.000000  -0.048110   0.003741  -0.004812  -0.005123
     2  C    0.000000   0.000000  -0.011990  -0.000131   0.009014   0.009600
     3  C    0.000000   0.000000   0.004334   0.000012  -0.000301  -0.000174
     4  C    0.000000   0.000000   0.000066   0.000001   0.000004  -0.000040
     5  C    0.000000   0.000000  -0.000405  -0.000017   0.000029   0.000039
     6  C   -0.000034   0.000002  -0.000001   0.000000   0.000000   0.000000
     7  C    0.000027  -0.000001   0.000000   0.000000   0.000000   0.000000
     8  C    0.000000   0.000000   0.000005   0.000000   0.000000   0.000000
     9  N    0.000000   0.000000   0.000003  -0.000001  -0.000155  -0.000116
    10  O    0.000000   0.000000   0.249809  -0.035163  -0.037567  -0.037244
    11  H    0.000000   0.000000   0.003740  -0.000054   0.000858   0.001143
    12  H    0.000000   0.000000  -0.000124   0.000006   0.000004   0.000003
    13  C    0.001771  -0.000080   0.000000   0.000000   0.000000   0.000000
    14  Br  -0.000041   0.000014   0.000000   0.000000   0.000000   0.000000
    15  H    0.000000   0.000000   0.000000   0.000000   0.000000   0.000000
    16  H    0.000000   0.000000  -0.000005   0.000000  -0.000005   0.000008
    17  C   -0.054052   0.003323   0.000000   0.000000   0.000000   0.000000
    18  H    0.000006   0.000001   0.000000   0.000000   0.000000   0.000000
    19  H    0.000002   0.000001   0.000000   0.000000   0.000000   0.000000
    20  S    0.210241   0.003101   0.000000   0.000000   0.000000   0.000000
    21  H    0.000714   0.000014   0.000000   0.000000   0.000000   0.000000
    22  H    0.000653  -0.000009   0.000000   0.000000   0.000000   0.000000
    23  O   -0.065638   0.001322   0.000000   0.000000   0.000000   0.000000
    24  O   -0.066326   0.001680   0.000000   0.000000   0.000000   0.000000
    25  O    8.431347   0.239740   0.000000   0.000000   0.000000   0.000000
    26  H    0.239740   0.317336   0.000000   0.000000   0.000000   0.000000
    27  C    0.000000   0.000000   4.914788   0.383490   0.356709   0.356322
    28  H    0.000000   0.000000   0.383490   0.539785  -0.028768  -0.028398
    29  H    0.000000   0.000000   0.356709  -0.028768   0.608688  -0.050116
    30  H    0.000000   0.000000   0.356322  -0.028398  -0.050116   0.606667
 Mulliken atomic charges:
              1
     1  C    0.263769
     2  C   -0.023979
     3  C    0.087992
     4  C    0.343363
     5  C   -0.249180
     6  C   -0.033923
     7  C    0.124456
     8  C   -0.396727
     9  N   -0.707973
    10  O   -0.510908
    11  H    0.147394
    12  H    0.145548
    13  C   -0.411179
    14  Br   0.228856
    15  H    0.130239
    16  H    0.326177
    17  C   -0.501386
    18  H    0.187873
    19  H    0.187198
    20  S    1.126825
    21  H    0.235591
    22  H    0.236049
    23  O   -0.459018
    24  O   -0.462911
    25  O   -0.698410
    26  H    0.433555
    27  C   -0.208633
    28  H    0.165496
    29  H    0.146415
    30  H    0.147430
 Sum of Mulliken charges=   0.00000
 Atomic charges with hydrogens summed into heavy atoms:
              1
     1  C    0.263769
     2  C    0.123414
     3  C    0.087992
     4  C    0.343363
     5  C   -0.103632
     6  C   -0.033923
     7  C    0.124456
     8  C   -0.266488
     9  N   -0.381796
    10  O   -0.510908
    11  H    0.000000
    12  H    0.000000
    13  C   -0.036107
    14  Br   0.228856
    15  H    0.000000
    16  H    0.000000
    17  C   -0.029746
    18  H    0.000000
    19  H    0.000000
    20  S    1.126825
    21  H    0.000000
    22  H    0.000000
    23  O   -0.459018
    24  O   -0.462911
    25  O   -0.264855
    26  H    0.000000
    27  C    0.250708
    28  H    0.000000
    29  H    0.000000
    30  H    0.000000
 Sum of Mulliken charges=   0.00000
 Electronic spatial extent (au):  <R**2>=  7802.2391
 Charge=     0.0000 electrons
 Dipole moment (field-independent basis, Debye):
    X=     4.8799    Y=    -3.4753    Z=     0.1635  Tot=     5.9931
 Quadrupole moment (field-independent basis, Debye-Ang):
   XX=  -102.0446   YY=  -119.9980   ZZ=  -127.5254
   XY=     5.9503   XZ=     1.8316   YZ=    -0.8803
 Traceless Quadrupole moment (field-independent basis, Debye-Ang):
   XX=    14.4780   YY=    -3.4753   ZZ=   -11.0027
   XY=     5.9503   XZ=     1.8316   YZ=    -0.8803
 Octapole moment (field-independent basis, Debye-Ang**2):
  XXX=    49.4925  YYY=   -58.5826  ZZZ=    -0.4102  XYY=    44.4410
  XXY=   -55.3315  XXZ=     2.6784  XZZ=   -13.3618  YZZ=   -21.7401
  YYZ=     1.8772  XYZ=    -3.8784
 Hexadecapole moment (field-independent basis, Debye-Ang**3):
 XXXX= -6176.6194 YYYY= -1487.0456 ZZZZ=  -240.0301 XXXY=   247.2658
 XXXZ=    39.6689 YYYX=    32.5004 YYYZ=    -4.7956 ZZZX=     1.4149
 ZZZY=    -0.2930 XXYY= -1495.4436 XXZZ= -1470.4994 YYZZ=  -315.4048
 XXYZ=   -14.9444 YYXZ=     7.4374 ZZXY=    46.6111
 N-N= 1.997999811719D+03 E-N=-1.289880847714D+04  KE= 3.733242600392D+03
 ***** Axes restored to original set *****
 -------------------------------------------------------------------
 Center     Atomic                   Forces (Hartrees/Bohr)
 Number     Number              X              Y              Z
 -------------------------------------------------------------------
    1          6          -0.001848609   -0.012299770   -0.000982764
    2          6           0.002057449    0.015306105    0.000532979
    3          6          -0.026593459   -0.015841198   -0.000634647
    4          6          -0.004441718    0.000235688    0.002154194
    5          6           0.005494218    0.003112522    0.000342618
    6          6          -0.072199008    0.068020943    0.000713157
    7          6          -2.241591404    1.518729343    0.007018290
    8          6          -0.114259446    0.032391433   -0.001431462
    9          7           0.026593549    0.036659408    0.003487468
   10          8          -0.004387421   -0.011311567   -0.000027575
   11          1           0.007365782   -0.000408327    0.000437712
   12          1          -0.000167391   -0.008152467   -0.000248753
   13          6           0.004119825    0.035989509    0.001329745
   14         35           2.343612372   -1.679285170   -0.008813536
   15          1           0.007051943    0.008819262    0.000407563
   16          1          -0.007666311   -0.020309344   -0.004353319
   17          6          -0.018929342   -0.039775752   -0.000362959
   18          1           0.001608190   -0.007674032    0.015088156
   19          1           0.002107516   -0.006542310   -0.015559535
   20         16           0.052907290   -0.088509145    0.000009539
   21          1           0.020353258    0.022995133   -0.014179125
   22          1           0.021260591    0.023268155    0.014603642
   23          8           0.006347757    0.068266264   -0.115182151
   24          8           0.007523598    0.065932653    0.116991832
   25          8          -0.033521386   -0.032472686   -0.003046422
   26          1           0.014198520    0.018101553    0.001802496
   27          6           0.002615464    0.011398562    0.000304548
   28          1          -0.005846028   -0.017073599   -0.000683277
   29          1           0.002973448    0.004937831    0.010333911
   30          1           0.003260753    0.005491004   -0.010052326
 -------------------------------------------------------------------
 Cartesian Forces:  Max     2.343612372 RMS     0.418045304

 GradGradGradGradGradGradGradGradGradGradGradGradGradGradGradGradGradGrad
 Berny optimization.
 Internal  Forces:  Max     1.637715370 RMS     0.167263297
 Search for a local minimum.
 Step number   1 out of a maximum of 178
 All quantities printed in internal units (Hartrees-Bohrs-Radians)
 Second derivative matrix not updated -- first step.
     Eigenvalues ---    0.00597   0.00912   0.01112   0.01343   0.01422
     Eigenvalues ---    0.01660   0.01732   0.01750   0.01770   0.01828
     Eigenvalues ---    0.01830   0.01885   0.01904   0.01906   0.01981
     Eigenvalues ---    0.02001   0.02020   0.02114   0.02171   0.03659
     Eigenvalues ---    0.04202   0.05091   0.05436   0.07924   0.08800
     Eigenvalues ---    0.08901   0.10218   0.10892   0.11171   0.11585
     Eigenvalues ---    0.12435   0.12566   0.15083   0.15990   0.16000
     Eigenvalues ---    0.16000   0.16000   0.16000   0.16000   0.16000
     Eigenvalues ---    0.17279   0.19902   0.20010   0.21840   0.22010
     Eigenvalues ---    0.22828   0.23614   0.24329   0.24786   0.24999
     Eigenvalues ---    0.25000   0.25000   0.25000   0.29802   0.30843
     Eigenvalues ---    0.30846   0.30991   0.30998   0.31076   0.31709
     Eigenvalues ---    0.31865   0.31878   0.33567   0.33639   0.33913
     Eigenvalues ---    0.34892   0.35376   0.36438   0.37883   0.41218
     Eigenvalues ---    0.41513   0.41881   0.43174   0.43518   0.45210
     Eigenvalues ---    0.45788   0.46390   0.46419   0.50500   0.51352
     Eigenvalues ---    0.57003   1.36968   1.37212   4.655011000.00000
     Eigenvalues --- 1000.000001000.000001000.000001000.000001000.00000
     Eigenvalues --- 1000.000001000.000001000.000001000.000001000.00000
     Eigenvalues --- 1000.000001000.000001000.000001000.000001000.00000
     Eigenvalues --- 1000.000001000.000001000.000001000.000001000.00000
     Eigenvalues --- 1000.000001000.000001000.000001000.000001000.00000
     Eigenvalues --- 1000.000001000.000001000.000001000.000001000.00000
     Eigenvalues --- 1000.000001000.000001000.000001000.000001000.00000
     Eigenvalues --- 1000.000001000.000001000.000001000.000001000.00000
     Eigenvalues --- 1000.000001000.000001000.000001000.000001000.00000
     Eigenvalues --- 1000.000001000.000001000.000001000.000001000.00000
     Eigenvalues --- 1000.000001000.000001000.000001000.000001000.00000
     Eigenvalues --- 1000.000001000.000001000.000001000.000001000.00000
     Eigenvalues --- 1000.000001000.000001000.000001000.000001000.00000
     Eigenvalues --- 1000.000001000.000001000.000001000.000001000.00000
     Eigenvalues --- 1000.000001000.000001000.000001000.000001000.00000
     Eigenvalues --- 1000.000001000.000001000.000001000.000001000.00000
     Eigenvalues --- 1000.000001000.000001000.00000
 RFO step:  Lambda=-9.40106112D-01.
 Linear search not attempted -- first point.
 Maximum step size (   0.300) exceeded in Quadratic search.
    -- Step size scaled by   0.601
 Iteration  1 RMS(Cart)=  0.12407958 RMS(Int)=  0.00278918
 Iteration  2 RMS(Cart)=  0.00835005 RMS(Int)=  0.00012368
 Iteration  3 RMS(Cart)=  0.00002543 RMS(Int)=  0.00012339
 Iteration  4 RMS(Cart)=  0.00000000 RMS(Int)=  0.00012339
 Variable       Old X    -DE/DX   Delta X   Delta X   Delta X     New X
                                 (Linear)    (Quad)   (Total)
    R1        2.63413  -0.01933   0.00000  -0.01015  -0.01013   2.62399
    R2        2.74099  -0.00884   0.00000  -0.00392  -0.00392   2.73707
    R3        2.58525  -0.00612   0.00000  -0.00253  -0.00253   2.58272
    R4        2.65549   0.00052   0.00000  -0.00109  -0.00108   2.65441
    R5        2.05850  -0.00735   0.00000  -0.00343  -0.00343   2.05507
    R6        2.73563  -0.01727   0.00000  -0.01297  -0.01303   2.72260
    R7        2.62736   0.01593   0.00000  -0.00045  -0.00050   2.62686
    R8        2.65193  -0.00967   0.00000  -0.00377  -0.00377   2.64817
    R9        2.63547  -0.02030   0.00000  -0.00762  -0.00763   2.62785
   R10        2.63831   0.00539   0.00000   0.00198   0.00198   2.64029
   R11        2.07943  -0.00815   0.00000  -0.00383  -0.00383   2.07560
   R12        2.66311  -0.45181   0.00000  -0.02484  -0.02510   2.63801
   R13        2.81367   0.09681   0.00000   0.04558   0.04558   2.85925
   R14        4.11361   0.69050   0.00000   0.12468   0.12487   4.23848
   R15        2.61943  -0.42681   0.00000  -0.01774  -0.01802   2.60142
   R16        2.08064   1.63772   0.00000   0.17681   0.17678   2.25742
   R17        4.04002   0.63493   0.00000   0.09425   0.09447   4.13449
   R18        2.07476  -0.00922   0.00000  -0.00433  -0.00433   2.07043
   R19        1.86064   0.02214   0.00000   0.00920   0.00920   1.86984
   R20        2.69548  -0.00195   0.00000  -0.00086  -0.00086   2.69461
   R21        2.85867   0.03349   0.00000   0.01608   0.01608   2.87475
   R22        2.13007  -0.01652   0.00000  -0.00795  -0.00795   2.12213
   R23        2.13013  -0.01646   0.00000  -0.00792  -0.00792   2.12222
   R24        3.18235   0.05681   0.00000   0.02587   0.02587   3.20822
   R25        2.12716  -0.02638   0.00000  -0.01268  -0.01268   2.11448
   R26        2.12730  -0.02675   0.00000  -0.01286  -0.01286   2.11444
   R27        2.60315   0.13286   0.00000   0.03451   0.03451   2.63766
   R28        2.60379   0.13329   0.00000   0.03466   0.03466   2.63845
   R29        3.13631  -0.00089   0.00000  -0.00040  -0.00040   3.13592
   R30        1.80094   0.01735   0.00000   0.00690   0.00690   1.80784
   R31        2.11379  -0.01692   0.00000  -0.00808  -0.00808   2.10571
   R32        2.11068  -0.01160   0.00000  -0.00553  -0.00553   2.10514
   R33        2.11092  -0.01171   0.00000  -0.00559  -0.00559   2.10533
    A1        1.88969  -0.00237   0.00000  -0.00119  -0.00121   1.88848
    A2        2.26934   0.00042   0.00000   0.00021   0.00022   2.26956
    A3        2.12414   0.00195   0.00000   0.00098   0.00099   2.12513
    A4        1.90457  -0.00227   0.00000  -0.00271  -0.00271   1.90186
    A5        2.26870   0.00183   0.00000   0.00174   0.00174   2.27044
    A6        2.10950   0.00043   0.00000   0.00097   0.00097   2.11047
    A7        1.83867   0.00482   0.00000   0.00421   0.00424   1.84292
    A8        2.34817   0.01017   0.00000   0.00034   0.00045   2.34862
    A9        2.09634  -0.01499   0.00000  -0.00455  -0.00469   2.09165
   A10        2.09658  -0.02102   0.00000   0.00145   0.00137   2.09795
   A11        1.89734  -0.00223   0.00000  -0.00316  -0.00316   1.89418
   A12        2.28884   0.02326   0.00000   0.00172   0.00180   2.29063
   A13        2.08122  -0.00675   0.00000   0.00967   0.00954   2.09076
   A14        2.09038   0.00377   0.00000  -0.00462  -0.00456   2.08583
   A15        2.11158   0.00299   0.00000  -0.00505  -0.00498   2.10660
   A16        2.09787  -0.23558   0.00000  -0.02350  -0.02332   2.07456
   A17        2.04639  -0.06471   0.00000  -0.04381  -0.04380   2.00260
   A18        2.55246   0.12876   0.00000   0.00304   0.00281   2.55527
   A19        2.13892   0.30029   0.00000   0.06731   0.06711   2.20603
   A20        1.68434  -0.06405   0.00000   0.04077   0.04099   1.72532
   A21        2.13205   0.49650   0.00000   0.02873   0.02876   2.16081
   A22        2.06230  -0.21816   0.00000  -0.01181  -0.01166   2.05064
   A23        2.53397   0.17820   0.00000   0.02763   0.02746   2.56142
   A24        2.11118   0.01783   0.00000  -0.00281  -0.00280   2.10838
   A25        2.10970   0.20032   0.00000   0.01462   0.01446   2.12416
   A26        1.63804  -0.19604   0.00000  -0.02482  -0.02466   1.61338
   A27        1.89309   0.00207   0.00000   0.00287   0.00285   1.89594
   A28        2.17313  -0.00067   0.00000  -0.00127  -0.00126   2.17187
   A29        2.18069  -0.00124   0.00000  -0.00150  -0.00149   2.17920
   A30        1.99304   0.00555   0.00000   0.00280   0.00280   1.99584
   A31        2.01130   0.17913   0.00000   0.09320   0.09352   2.10481
   A32        1.88836  -0.05135   0.00000  -0.02621  -0.02610   1.86226
   A33        1.88907  -0.05186   0.00000  -0.02647  -0.02639   1.86268
   A34        1.89684  -0.05417   0.00000  -0.02795  -0.02794   1.86890
   A35        1.89719  -0.05310   0.00000  -0.02733  -0.02732   1.86988
   A36        1.87685   0.02413   0.00000   0.01085   0.00993   1.88678
   A37        1.20580  -0.26420   0.00000  -0.03725  -0.03648   1.16932
   A38        1.96076  -0.01897   0.00000  -0.01000  -0.00999   1.95077
   A39        1.89637   0.01627   0.00000   0.00910   0.00905   1.90541
   A40        1.89730   0.01650   0.00000   0.00923   0.00918   1.90648
   A41        1.93709  -0.00730   0.00000  -0.00465  -0.00462   1.93247
   A42        1.93520  -0.00758   0.00000  -0.00481  -0.00478   1.93042
   A43        1.83210   0.00353   0.00000   0.00251   0.00243   1.83453
   A44        1.97479  -0.01017   0.00000  -0.00577  -0.00577   1.96902
   A45        1.97674  -0.00991   0.00000  -0.00562  -0.00561   1.97112
   A46        1.70945  -0.02439   0.00000  -0.01222  -0.01223   1.69722
   A47        2.09557   0.00686   0.00000   0.00373   0.00363   2.09920
   A48        1.82574   0.01904   0.00000   0.01019   0.01014   1.83587
   A49        1.82045   0.01973   0.00000   0.01059   0.01053   1.83098
   A50        2.06188  -0.02740   0.00000  -0.01496  -0.01496   2.04692
   A51        1.80859   0.00935   0.00000   0.00513   0.00512   1.81371
   A52        1.92742   0.00155   0.00000   0.00083   0.00083   1.92825
   A53        1.92849   0.00124   0.00000   0.00067   0.00066   1.92915
   A54        1.93624  -0.00431   0.00000  -0.00233  -0.00234   1.93390
   A55        1.93579  -0.00411   0.00000  -0.00223  -0.00223   1.93356
   A56        1.92465  -0.00303   0.00000  -0.00169  -0.00169   1.92296
    D1        0.03086  -0.00023   0.00000  -0.00022  -0.00022   0.03064
    D2        3.14098  -0.00029   0.00000  -0.00023  -0.00023   3.14076
    D3       -3.10529  -0.00019   0.00000  -0.00011  -0.00011  -3.10540
    D4        0.00483  -0.00025   0.00000  -0.00011  -0.00011   0.00472
    D5       -0.00088  -0.00012   0.00000   0.00005   0.00004  -0.00084
    D6        3.14082  -0.00023   0.00000   0.00001   0.00001   3.14083
    D7        3.13581  -0.00016   0.00000  -0.00006  -0.00006   3.13575
    D8       -0.00567  -0.00028   0.00000  -0.00010  -0.00010  -0.00577
    D9        0.00743  -0.00024   0.00000  -0.00020  -0.00020   0.00724
   D10       -3.12809  -0.00018   0.00000  -0.00007  -0.00007  -3.12815
   D11       -0.04991   0.00021   0.00000   0.00015   0.00016  -0.04975
   D12       -2.91656  -0.00024   0.00000  -0.00008  -0.00008  -2.91664
   D13        3.11977   0.00023   0.00000   0.00014   0.00014   3.11991
   D14        0.25312  -0.00021   0.00000  -0.00010  -0.00010   0.25302
   D15        3.14016  -0.00047   0.00000  -0.00010  -0.00010   3.14006
   D16       -0.02956   0.00018   0.00000   0.00007   0.00007  -0.02949
   D17       -0.00152  -0.00037   0.00000  -0.00007  -0.00007  -0.00159
   D18        3.11194   0.00028   0.00000   0.00010   0.00010   3.11204
   D19       -3.13933   0.00050   0.00000   0.00016   0.00016  -3.13917
   D20        0.00194   0.00023   0.00000   0.00003   0.00003   0.00197
   D21        0.00238   0.00038   0.00000   0.00012   0.00012   0.00250
   D22       -3.13953   0.00011   0.00000  -0.00001  -0.00001  -3.13954
   D23        0.00071  -0.00017   0.00000  -0.00012  -0.00012   0.00059
   D24        0.00151   0.00047   0.00000   0.00024   0.00024   0.00176
   D25        3.14088   0.00009   0.00000   0.00004   0.00004   3.14092
   D26       -3.10551  -0.00024   0.00000  -0.00024  -0.00024  -3.10575
   D27       -3.10470   0.00040   0.00000   0.00012   0.00013  -3.10458
   D28        0.03466   0.00002   0.00000  -0.00008  -0.00008   0.03459
   D29        0.04903  -0.00036   0.00000  -0.00016  -0.00016   0.04886
   D30        2.91420   0.00020   0.00000   0.00012   0.00012   2.91432
   D31       -3.12487  -0.00067   0.00000   0.00001   0.00000  -3.12487
   D32       -0.25970  -0.00011   0.00000   0.00029   0.00029  -0.25941
   D33       -0.00247   0.00038   0.00000   0.00006   0.00005  -0.00242
   D34        3.13885  -0.00007   0.00000  -0.00010  -0.00010   3.13875
   D35       -0.00398  -0.00075   0.00000  -0.00032  -0.00032  -0.00430
   D36        3.13944   0.00066   0.00000   0.00019   0.00019   3.13963
   D37       -0.00242   0.00020   0.00000   0.00004   0.00004  -0.00238
   D38        3.13793  -0.00048   0.00000  -0.00019  -0.00018   3.13775
   D39        0.00171  -0.00048   0.00000  -0.00025  -0.00025   0.00146
   D40       -3.13959   0.00007   0.00000  -0.00007  -0.00006  -3.13965
   D41       -3.13174   0.00107   0.00000   0.00061   0.00061  -3.13113
   D42       -1.00508   0.01355   0.00000   0.00779   0.00765  -0.99743
   D43        1.02379  -0.01263   0.00000  -0.00729  -0.00715   1.01664
   D44        0.00957   0.00050   0.00000   0.00043   0.00043   0.01000
   D45        2.13623   0.01299   0.00000   0.00761   0.00747   2.14370
   D46       -2.11809  -0.01319   0.00000  -0.00747  -0.00733  -2.12541
   D47        0.01054   0.00131   0.00000   0.00073   0.00073   0.01128
   D48        2.13721   0.01379   0.00000   0.00792   0.00777   2.14498
   D49       -2.11711  -0.01239   0.00000  -0.00717  -0.00702  -2.12413
   D50        0.00286   0.00041   0.00000   0.00026   0.00026   0.00312
   D51       -3.13984  -0.00022   0.00000   0.00004   0.00003  -3.13982
   D52       -0.00081   0.00035   0.00000   0.00027   0.00027  -0.00054
   D53       -3.14099   0.00025   0.00000   0.00012   0.00012  -3.14087
   D54       -0.00144  -0.00021   0.00000  -0.00025  -0.00025  -0.00169
   D55       -3.14113   0.00008   0.00000  -0.00007  -0.00007  -3.14120
   D56        3.13617   0.00002   0.00000   0.00001   0.00001   3.13618
   D57       -1.07249   0.00094   0.00000   0.00054   0.00054  -1.07194
   D58        1.06166  -0.00100   0.00000  -0.00058  -0.00058   1.06108
   D59        3.11991   0.00012   0.00000   0.00007   0.00006   3.11997
   D60       -1.01317  -0.01035   0.00000  -0.00610  -0.00614  -1.01931
   D61        0.97153   0.01077   0.00000   0.00635   0.00638   0.97791
   D62        0.99782  -0.01484   0.00000  -0.00855  -0.00835   0.98947
   D63       -3.13526  -0.02530   0.00000  -0.01471  -0.01455   3.13338
   D64       -1.15056  -0.00418   0.00000  -0.00227  -0.00203  -1.15259
   D65       -1.04000   0.01539   0.00000   0.00891   0.00872  -1.03128
   D66        1.11011   0.00493   0.00000   0.00274   0.00251   1.11263
   D67        3.09481   0.02604   0.00000   0.01519   0.01503   3.10985
   D68       -1.23351   0.00640   0.00000   0.00376   0.00376  -1.22975
   D69        1.22689  -0.00673   0.00000  -0.00395  -0.00395   1.22294
   D70        3.13559   0.00026   0.00000   0.00015   0.00015   3.13575
   D71        2.92258   0.00407   0.00000   0.00244   0.00243   2.92501
   D72       -0.90021  -0.00906   0.00000  -0.00527  -0.00528  -0.90549
   D73        1.00849  -0.00206   0.00000  -0.00117  -0.00118   1.00731
   D74        0.89344   0.00887   0.00000   0.00516   0.00518   0.89861
   D75       -2.92935  -0.00426   0.00000  -0.00255  -0.00254  -2.93189
   D76       -1.02065   0.00274   0.00000   0.00155   0.00156  -1.01908
   D77       -3.07977  -0.00007   0.00000  -0.00003  -0.00003  -3.07980
   D78        1.16974   0.01419   0.00000   0.00766   0.00775   1.17749
   D79       -1.04551  -0.01374   0.00000  -0.00738  -0.00748  -1.05299
         Item               Value     Threshold  Converged?
 Maximum Force            1.637715     0.000450     NO 
 RMS     Force            0.167263     0.000300     NO 
 Maximum Displacement     0.657857     0.001800     NO 
 RMS     Displacement     0.128344     0.001200     NO 
 Predicted change in Energy=-4.374281D-01
 GradGradGradGradGradGradGradGradGradGradGradGradGradGradGradGradGradGrad

                          Input orientation:                          
 ---------------------------------------------------------------------
 Center     Atomic     Atomic              Coordinates (Angstroms)
 Number     Number      Type              X           Y           Z
 ---------------------------------------------------------------------
    1          6             0       -3.759608    0.485189   -0.041445
    2          6             0       -4.659536   -0.571509   -0.081526
    3          6             0       -2.418741   -0.062439   -0.035963
    4          6             0       -2.584600   -1.493101   -0.073774
    5          6             0       -1.141502    0.485250   -0.004170
    6          6             0       -0.025398   -0.355201   -0.012103
    7          6             0       -0.222395   -1.736708   -0.049169
    8          6             0       -1.462800   -2.332923   -0.080502
    9          7             0       -3.945071   -1.780717   -0.061340
   10          8             0       -3.986639    1.832411   -0.004497
   11          1             0       -5.746913   -0.565100   -0.096464
   12          1             0       -1.021439    1.576595    0.026542
   13          6             0        1.306935    0.361120    0.021081
   14         35             0        0.720621   -2.469989   -0.054115
   15          1             0       -1.577575   -3.422162   -0.108511
   16          1             0       -4.337794   -2.666156   -0.263402
   17          6             0        2.609297   -0.424844    0.002955
   18          1             0        1.325090    1.050047   -0.865563
   19          1             0        1.312760    0.989761    0.951656
   20         16             0        3.963125    0.599510    0.012651
   21          1             0        2.631786   -1.119053    0.880215
   22          1             0        2.625604   -1.090503   -0.896267
   23          8             0        4.129561    1.287987   -1.190068
   24          8             0        4.138082    1.258564    1.231025
   25          8             0        5.123300   -0.586909   -0.001406
   26          1             0        6.036681   -0.307677    0.053183
   27          6             0       -5.365307    2.196429    0.001326
   28          1             0       -5.348345    3.309976    0.038371
   29          1             0       -5.866734    1.839018   -0.927011
   30          1             0       -5.875947    1.778734    0.899092
 ---------------------------------------------------------------------
                    Distance matrix (angstroms):
                    1          2          3          4          5
     1  C    0.000000
     2  C    1.388556   0.000000
     3  C    1.448396   2.298346   0.000000
     4  C    2.301156   2.270408   1.440740   0.000000
     5  C    2.618371   3.674138   1.390077   2.449745   0.000000
     6  C    3.827720   4.639704   2.411301   2.801453   1.397179
     7  C    4.177171   4.587696   2.761754   2.374860   2.404970
     8  C    3.635740   3.649891   2.463921   1.401350   2.837457
     9  N    2.273570   1.404653   2.298435   1.390597   3.605256
    10  O    1.366717   2.497510   2.459624   3.609646   3.147959
    11  H    2.248447   1.087498   3.366460   3.295744   4.724570
    12  H    2.948450   4.226321   2.154714   3.446240   1.098359
    13  C    5.068447   6.039794   3.750109   4.311749   2.451711
    14  Br   5.367093   5.705355   3.956289   3.446619   3.493342
    15  H    4.475841   4.198266   3.464182   2.176369   3.933054
    16  H    3.211625   2.127003   3.242504   2.117949   4.496092
    17  C    6.433745   7.270804   5.041232   5.303171   3.859639
    18  H    5.181929   6.249793   3.992760   4.730773   2.673027
    19  H    5.193241   6.258862   4.000827   4.733447   2.681704
    20  S    7.723768   8.702324   6.416288   6.874532   5.105933
    21  H    6.653793   7.374831   5.240576   5.316078   4.194476
[...]
 Alpha virt. eigenvalues --    0.17425   0.19549   0.21105   0.22247   0.23014
 Alpha virt. eigenvalues --    0.24769   0.26308   0.27908   0.30433   0.32200
 Alpha virt. eigenvalues --    0.33091   0.33603   0.35012   0.37396   0.40066
 Alpha virt. eigenvalues --    0.41508   0.43595   0.43599   0.44475   0.45278
 Alpha virt. eigenvalues --    0.46136   0.47244   0.47517   0.49006   0.49551
 Alpha virt. eigenvalues --    0.50675   0.51637   0.52214   0.52761   0.53339
 Alpha virt. eigenvalues --    0.53912   0.54595   0.55253   0.57545   0.57640
 Alpha virt. eigenvalues --    0.58346   0.58844   0.58872   0.60762   0.62049
 Alpha virt. eigenvalues --    0.62941   0.63472   0.64784   0.67765   0.68774
 Alpha virt. eigenvalues --    0.69295   0.70340   0.72124   0.73684   0.76872
 Alpha virt. eigenvalues --    0.77335   0.78652   0.78907   0.79733   0.80235
 Alpha virt. eigenvalues --    0.80650   0.81456   0.82754   0.83303   0.83694
 Alpha virt. eigenvalues --    0.84795   0.85312   0.85501   0.86546   0.87612
 Alpha virt. eigenvalues --    0.88836   0.89461   0.89826   0.90441   0.92959
 Alpha virt. eigenvalues --    0.94853   0.95378   0.95969   0.96963   0.98624
 Alpha virt. eigenvalues --    0.99513   1.00258   1.01072   1.02363   1.04065
 Alpha virt. eigenvalues --    1.04900   1.05759   1.06499   1.07967   1.11477
 Alpha virt. eigenvalues --    1.12910   1.13862   1.15623   1.17261   1.18535
 Alpha virt. eigenvalues --    1.20482   1.21624   1.22102   1.22521   1.23342
 Alpha virt. eigenvalues --    1.27300   1.29241   1.32024   1.32576   1.35576
 Alpha virt. eigenvalues --    1.37297   1.38083   1.39746   1.40955   1.41695
 Alpha virt. eigenvalues --    1.43302   1.45505   1.47387   1.50072   1.51399
 Alpha virt. eigenvalues --    1.53534   1.55267   1.57552   1.58419   1.62253
 Alpha virt. eigenvalues --    1.66886   1.67922   1.68348   1.70070   1.73237
 Alpha virt. eigenvalues --    1.75135   1.76032   1.76607   1.77762   1.79552
 Alpha virt. eigenvalues --    1.80200   1.80353   1.81068   1.81401   1.83683
 Alpha virt. eigenvalues --    1.84912   1.86353   1.88386   1.90536   1.92632
 Alpha virt. eigenvalues --    1.93704   1.94868   1.96039   1.97450   1.99589
 Alpha virt. eigenvalues --    2.02477   2.03010   2.03593   2.06764   2.07162
 Alpha virt. eigenvalues --    2.08389   2.09230   2.11256   2.12917   2.13741
 Alpha virt. eigenvalues --    2.16007   2.16961   2.18520   2.19800   2.21559
 Alpha virt. eigenvalues --    2.24854   2.26333   2.27352   2.28336   2.31135
 Alpha virt. eigenvalues --    2.34204   2.34961   2.36423   2.37325   2.39210
 Alpha virt. eigenvalues --    2.41104   2.43106   2.47764   2.49236   2.51843
 Alpha virt. eigenvalues --    2.55184   2.56848   2.57455   2.61073   2.68241
 Alpha virt. eigenvalues --    2.68601   2.70373   2.72158   2.77429   2.78085
 Alpha virt. eigenvalues --    2.79563   2.81680   2.83963   2.91669   2.94629
 Alpha virt. eigenvalues --    2.97803   3.04292   3.15207   3.30178   3.41481
 Alpha virt. eigenvalues --    3.72361   3.84136   3.92528   3.98692   4.00344
 Alpha virt. eigenvalues --    4.06700   4.09781   4.13732   4.17677   4.21830
 Alpha virt. eigenvalues --    4.22685   4.30426   4.42405   4.43514   4.47405
 Alpha virt. eigenvalues --    4.62788   4.82054   8.64820  73.60752
          Condensed to atoms (all electrons):
              1          2          3          4          5          6
     1  C    4.806859   0.418311   0.411773  -0.001604  -0.096183   0.006439
     2  C    0.418311   5.164952  -0.036331  -0.119571   0.018447  -0.000251
     3  C    0.411773  -0.036331   4.817987   0.481860   0.427315  -0.008235
     4  C   -0.001604  -0.119571   0.481860   4.721036  -0.057006  -0.033363
     5  C   -0.096183   0.018447   0.427315  -0.057006   5.260744   0.484626
     6  C    0.006439  -0.000251  -0.008235  -0.033363   0.484626   4.836165
     7  C    0.000738  -0.000112  -0.034816  -0.001551  -0.018634   0.477213
     8  C    0.012999   0.003985  -0.048851   0.438099  -0.073754  -0.030322
     9  N   -0.042983   0.293792  -0.041846   0.277926   0.011409   0.000048
    10  O    0.304499  -0.081588  -0.056481   0.003681   0.000927   0.000184
    11  H   -0.031552   0.365697   0.002432   0.005104  -0.000139   0.000003
    12  H   -0.006476   0.000108  -0.035936   0.004581   0.354547  -0.044345
    13  C   -0.000187   0.000003   0.005229   0.000261  -0.053654   0.334491
    14  Br   0.000006   0.000001   0.000306   0.004534   0.005837  -0.060673
    15  H   -0.000274   0.000027   0.004069  -0.035869   0.000536   0.003885
    16  H    0.003468  -0.029820   0.006227  -0.025690  -0.000110  -0.000009
    17  C    0.000002   0.000000  -0.000263   0.000042  -0.003370  -0.027373
    18  H   -0.000007   0.000000   0.000243   0.000009  -0.002336  -0.034106
    19  H    0.000002   0.000000  -0.000082   0.000007   0.002043  -0.028657
    20  S    0.000000   0.000000  -0.000001   0.000000  -0.000119   0.001331
    21  H    0.000000   0.000000   0.000011  -0.000007   0.000197  -0.005559
    22  H    0.000001   0.000000  -0.000051  -0.000006   0.002055  -0.002557
    23  O    0.000000   0.000000   0.000000   0.000000   0.000002   0.000007
    24  O    0.000000   0.000000   0.000000   0.000000  -0.000001  -0.000032
    25  O    0.000000   0.000000   0.000000   0.000000   0.000000  -0.000040
    26  H    0.000000   0.000000   0.000000   0.000000   0.000000   0.000002
    27  C   -0.047272  -0.011288   0.004345   0.000073  -0.000425   0.000000
    28  H    0.003512  -0.000231   0.000024   0.000002  -0.000020   0.000000
    29  H   -0.005017   0.009111  -0.000205  -0.000026   0.000037   0.000000
    30  H   -0.004945   0.008946  -0.000218  -0.000020   0.000033   0.000000
              7          8          9         10         11         12
     1  C    0.000738   0.012999  -0.042983   0.304499  -0.031552  -0.006476
     2  C   -0.000112   0.003985   0.293792  -0.081588   0.365697   0.000108
     3  C   -0.034816  -0.048851  -0.041846  -0.056481   0.002432  -0.035936
     4  C   -0.001551   0.438099   0.277926   0.003681   0.005104   0.004581
     5  C   -0.018634  -0.073754   0.011409   0.000927  -0.000139   0.354547
     6  C    0.477213  -0.030322   0.000048   0.000184   0.000003  -0.044345
     7  C    4.907699   0.487799   0.004580   0.000002   0.000001   0.005051
     8  C    0.487799   5.203461  -0.090683  -0.000075  -0.000119   0.000406
     9  N    0.004580  -0.090683   7.025520   0.002953  -0.044662  -0.000130
    10  O    0.000002  -0.000075   0.002953   8.183543  -0.002808   0.003315
    11  H    0.000001  -0.000119  -0.044662  -0.002808   0.546511  -0.000001
    12  H    0.005051   0.000406  -0.000130   0.003315  -0.000001   0.569837
    13  C   -0.059583   0.008019   0.000000  -0.000001   0.000000  -0.008785
    14  Br   0.259277  -0.066368  -0.000086   0.000000   0.000000  -0.000126
    15  H   -0.035347   0.347495  -0.005260   0.000000   0.000002   0.000018
    16  H   -0.000100  -0.004531   0.324772  -0.000028  -0.001947   0.000005
    17  C   -0.002667  -0.000118   0.000000   0.000000   0.000000   0.000372
    18  H    0.003444  -0.000131   0.000000   0.000000   0.000000   0.005541
    19  H   -0.005437   0.000079   0.000000   0.000000   0.000000   0.000074
    20  S    0.000018   0.000005   0.000000   0.000000   0.000000  -0.000017
    21  H    0.000316  -0.000095   0.000000   0.000000   0.000000   0.000008
    22  H    0.000240  -0.000024   0.000000   0.000000   0.000000   0.000260
    23  O   -0.000002   0.000000   0.000000   0.000000   0.000000  -0.000002
    24  O    0.000007   0.000000   0.000000   0.000000   0.000000   0.000000
    25  O    0.000000   0.000000   0.000000   0.000000   0.000000   0.000000
    26  H    0.000000   0.000000   0.000000   0.000000   0.000000   0.000000
    27  C    0.000000   0.000004   0.000006   0.257660   0.003770  -0.000133
    28  H    0.000000   0.000000  -0.000001  -0.032435  -0.000067   0.000005
    29  H    0.000000   0.000000  -0.000126  -0.037625   0.001055   0.000004
    30  H    0.000000   0.000000  -0.000129  -0.037568   0.001021   0.000004
             13         14         15         16         17         18
     1  C   -0.000187   0.000006  -0.000274   0.003468   0.000002  -0.000007
     2  C    0.000003   0.000001   0.000027  -0.029820   0.000000   0.000000
     3  C    0.005229   0.000306   0.004069   0.006227  -0.000263   0.000243
     4  C    0.000261   0.004534  -0.035869  -0.025690   0.000042   0.000009
     5  C   -0.053654   0.005837   0.000536  -0.000110  -0.003370  -0.002336
     6  C    0.334491  -0.060673   0.003885  -0.000009  -0.027373  -0.034106
     7  C   -0.059583   0.259277  -0.035347  -0.000100  -0.002667   0.003444
     8  C    0.008019  -0.066368   0.347495  -0.004531  -0.000118  -0.000131
     9  N    0.000000  -0.000086  -0.005260   0.324772   0.000000   0.000000
    10  O   -0.000001   0.000000   0.000000  -0.000028   0.000000   0.000000
    11  H    0.000000   0.000000   0.000002  -0.001947   0.000000   0.000000
    12  H   -0.008785  -0.000126   0.000018   0.000005   0.000372   0.005541
    13  C    5.225071  -0.012430  -0.000130   0.000000   0.294686   0.365125
    14  Br  -0.012430  34.994051  -0.002315  -0.000001  -0.008692   0.000575
    15  H   -0.000130  -0.002315   0.571480   0.002539   0.000000   0.000002
    16  H    0.000000  -0.000001   0.002539   0.393467   0.000000   0.000000
    17  C    0.294686  -0.008692   0.000000   0.000000   5.585535  -0.040490
    18  H    0.365125   0.000575   0.000002   0.000000  -0.040490   0.535992
    19  H    0.365617   0.008819  -0.000002   0.000000  -0.043514  -0.027865
    20  S   -0.015685  -0.000110   0.000000   0.000000   0.185478  -0.001374
    21  H   -0.028714   0.012391   0.000004   0.000000   0.334988   0.004817
    22  H   -0.030429   0.000245   0.000000   0.000000   0.340330  -0.003204
    23  O   -0.002479  -0.000001   0.000000   0.000000  -0.058933   0.007627
    24  O   -0.002852  -0.000012   0.000000   0.000000  -0.050211  -0.000286
    25  O    0.001651  -0.000001   0.000000   0.000000  -0.043649   0.000036
    26  H   -0.000077   0.000000   0.000000   0.000000   0.002167   0.000001
    27  C    0.000000   0.000000   0.000000  -0.000004   0.000000   0.000000
    28  H    0.000000   0.000000   0.000000   0.000000   0.000000   0.000000
    29  H    0.000000   0.000000   0.000000   0.000003   0.000000   0.000000
    30  H    0.000000   0.000000   0.000000   0.000002   0.000000   0.000000
             19         20         21         22         23         24
     1  C    0.000002   0.000000   0.000000   0.000001   0.000000   0.000000
     2  C    0.000000   0.000000   0.000000   0.000000   0.000000   0.000000
     3  C   -0.000082  -0.000001   0.000011  -0.000051   0.000000   0.000000
     4  C    0.000007   0.000000  -0.000007  -0.000006   0.000000   0.000000
     5  C    0.002043  -0.000119   0.000197   0.002055   0.000002  -0.000001
     6  C   -0.028657   0.001331  -0.005559  -0.002557   0.000007  -0.000032
     7  C   -0.005437   0.000018   0.000316   0.000240  -0.000002   0.000007
     8  C    0.000079   0.000005  -0.000095  -0.000024   0.000000   0.000000
     9  N    0.000000   0.000000   0.000000   0.000000   0.000000   0.000000
    10  O    0.000000   0.000000   0.000000   0.000000   0.000000   0.000000
    11  H    0.000000   0.000000   0.000000   0.000000   0.000000   0.000000
    12  H    0.000074  -0.000017   0.000008   0.000260  -0.000002   0.000000
    13  C    0.365617  -0.015685  -0.028714  -0.030429  -0.002479  -0.002852
    14  Br   0.008819  -0.000110   0.012391   0.000245  -0.000001  -0.000012
    15  H   -0.000002   0.000000   0.000004   0.000000   0.000000   0.000000
    16  H    0.000000   0.000000   0.000000   0.000000   0.000000   0.000000
    17  C   -0.043514   0.185478   0.334988   0.340330  -0.058933  -0.050211
    18  H   -0.027865  -0.001374   0.004817  -0.003204   0.007627  -0.000286
    19  H    0.529094   0.000384  -0.004747   0.004894  -0.000422   0.004889
    20  S    0.000384  13.624191  -0.006975  -0.008336   0.447379   0.426267
    21  H   -0.004747  -0.006975   0.501091  -0.025104   0.001717  -0.000258
    22  H    0.004894  -0.008336  -0.025104   0.510021  -0.000703   0.001603
    23  O   -0.000422   0.447379   0.001717  -0.000703   8.185658  -0.042613
    24  O    0.004889   0.426267  -0.000258   0.001603  -0.042613   8.232047
    25  O   -0.000008   0.144306   0.001545   0.000324  -0.042844  -0.046186
    26  H    0.000001   0.004201   0.000022  -0.000120   0.000523   0.006886
    27  C    0.000000   0.000000   0.000000   0.000000   0.000000   0.000000
    28  H    0.000000   0.000000   0.000000   0.000000   0.000000   0.000000
    29  H    0.000000   0.000000   0.000000   0.000000   0.000000   0.000000
    30  H    0.000000   0.000000   0.000000   0.000000   0.000000   0.000000
             25         26         27         28         29         30
     1  C    0.000000   0.000000  -0.047272   0.003512  -0.005017  -0.004945
     2  C    0.000000   0.000000  -0.011288  -0.000231   0.009111   0.008946
     3  C    0.000000   0.000000   0.004345   0.000024  -0.000205  -0.000218
     4  C    0.000000   0.000000   0.000073   0.000002  -0.000026  -0.000020
     5  C    0.000000   0.000000  -0.000425  -0.000020   0.000037   0.000033
     6  C   -0.000040   0.000002   0.000000   0.000000   0.000000   0.000000
     7  C    0.000000   0.000000   0.000000   0.000000   0.000000   0.000000
     8  C    0.000000   0.000000   0.000004   0.000000   0.000000   0.000000
     9  N    0.000000   0.000000   0.000006  -0.000001  -0.000126  -0.000129
    10  O    0.000000   0.000000   0.257660  -0.032435  -0.037625  -0.037568
    11  H    0.000000   0.000000   0.003770  -0.000067   0.001055   0.001021
    12  H    0.000000   0.000000  -0.000133   0.000005   0.000004   0.000004
    13  C    0.001651  -0.000077   0.000000   0.000000   0.000000   0.000000
    14  Br  -0.000001   0.000000   0.000000   0.000000   0.000000   0.000000
    15  H    0.000000   0.000000   0.000000   0.000000   0.000000   0.000000
    16  H    0.000000   0.000000  -0.000004   0.000000   0.000003   0.000002
    17  C   -0.043649   0.002167   0.000000   0.000000   0.000000   0.000000
    18  H    0.000036   0.000001   0.000000   0.000000   0.000000   0.000000
    19  H   -0.000008   0.000001   0.000000   0.000000   0.000000   0.000000
    20  S    0.144306   0.004201   0.000000   0.000000   0.000000   0.000000
    21  H    0.001545   0.000022   0.000000   0.000000   0.000000   0.000000
    22  H    0.000324  -0.000120   0.000000   0.000000   0.000000   0.000000
    23  O   -0.042844   0.000523   0.000000   0.000000   0.000000   0.000000
    24  O   -0.046186   0.006886   0.000000   0.000000   0.000000   0.000000
    25  O    8.403369   0.231472   0.000000   0.000000   0.000000   0.000000
    26  H    0.231472   0.316385   0.000000   0.000000   0.000000   0.000000
    27  C    0.000000   0.000000   4.899375   0.388363   0.360212   0.360509
    28  H    0.000000   0.000000   0.388363   0.529701  -0.030973  -0.030982
    29  H    0.000000   0.000000   0.360212  -0.030973   0.607350  -0.051915
    30  H    0.000000   0.000000   0.360509  -0.030982  -0.051915   0.606715
 Mulliken atomic charges:
              1
     1  C    0.267888
     2  C   -0.004190
     3  C    0.101493
     4  C    0.337498
     5  C   -0.263004
     6  C    0.131127
     7  C    0.011865
     8  C   -0.187281
     9  N   -0.715101
    10  O   -0.508157
    11  H    0.155698
    12  H    0.151817
    13  C   -0.385148
    14  Br  -0.135228
    15  H    0.149138
    16  H    0.331756
    17  C   -0.464318
    18  H    0.186386
    19  H    0.194830
    20  S    1.199055
    21  H    0.214352
    22  H    0.210560
    23  O   -0.494914
    24  O   -0.529248
    25  O   -0.649976
    26  H    0.438536
    27  C   -0.215195
    28  H    0.173102
    29  H    0.148115
    30  H    0.148545
 Sum of Mulliken charges=   0.00000
 Atomic charges with hydrogens summed into heavy atoms:
              1
     1  C    0.267888
     2  C    0.151508
     3  C    0.101493
     4  C    0.337498
     5  C   -0.111188
     6  C    0.131127
     7  C    0.011865
     8  C   -0.038144
     9  N   -0.383345
    10  O   -0.508157
    11  H    0.000000
    12  H    0.000000
    13  C   -0.003932
    14  Br  -0.135228
    15  H    0.000000
    16  H    0.000000
    17  C   -0.039407
    18  H    0.000000
    19  H    0.000000
    20  S    1.199055
    21  H    0.000000
    22  H    0.000000
    23  O   -0.494914
    24  O   -0.529248
    25  O   -0.211441
    26  H    0.000000
    27  C    0.254567
    28  H    0.000000
    29  H    0.000000
    30  H    0.000000
 Sum of Mulliken charges=   0.00000
 Electronic spatial extent (au):  <R**2>=  8272.5533
 Charge=     0.0000 electrons
 Dipole moment (field-independent basis, Debye):
    X=    -6.6541    Y=     2.2329    Z=     2.7972  Tot=     7.5556
 Quadrupole moment (field-independent basis, Debye-Ang):
   XX=   -97.4103   YY=  -125.1600   ZZ=  -124.9280
   XY=     5.2764   XZ=     6.2279   YZ=     1.0533
 Traceless Quadrupole moment (field-independent basis, Debye-Ang):
   XX=    18.4224   YY=    -9.3272   ZZ=    -9.0952
   XY=     5.2764   XZ=     6.2279   YZ=     1.0533
 Octapole moment (field-independent basis, Debye-Ang**2):
  XXX=  -113.9305  YYY=    85.3845  ZZZ=    -1.7100  XYY=   -55.8078
  XXY=    35.4595  XXZ=    78.9597  XZZ=    29.5236  YZZ=    20.0227
  YYZ=     8.6349  XYZ=   -16.4456
 Hexadecapole moment (field-independent basis, Debye-Ang**3):
 XXXX= -6079.3805 YYYY= -2311.7125 ZZZZ=  -336.7031 XXXY=   193.3741
 XXXZ=   220.7404 YYYX=   191.0727 YYYZ=     2.5033 ZZZX=    16.1374
 ZZZY=    -5.7160 XXYY= -1484.8794 XXZZ= -1285.1400 YYZZ=  -453.7053
 XXYZ=    -1.9362 YYXZ=    -8.8516 ZZXY=    22.0073
 N-N= 1.844135081925D+03 E-N=-1.259014157637D+04  KE= 3.727421210508D+03
 1\1\GINC-NODE27\FOpt\RB3LYP\6-31G(d)\C11H12Br1N1O4S1\GHUTCHIS\06-Apr-2
 005\0\\# B3LYP/6-31G* OPT\\/Users/ghutchis/heterocycle-05.mol2\\0,1\C,
 -3.7692092178,1.0731680295,-0.4242867162\C,-4.6971037931,0.0734680471,
 -0.5948896367\C,-2.5098673396,0.454074503,-0.1173976158\C,-2.739333710
 1,-0.9472724438,-0.1148211926\C,-1.2271338341,0.944186993,0.156933283\
 C,-0.1770366851,0.0685165832,0.4305618275\C,-0.4540765329,-1.322025577
 7,0.4206116638\C,-1.7081995515,-1.8520609005,0.1559592163\N,-4.0641739
 493,-1.1557692052,-0.4076209486\O,-3.9063642979,2.4219624193,-0.509397
 2134\H,-5.748143407,0.1193730494,-0.8341944388\H,-1.0477647888,2.01580
 8455,0.1616941313\C,1.2052622489,0.6210841494,0.7083279735\Br,0.958730
 8162,-2.5709310327,0.7955328084\H,-1.8688388405,-2.9245319537,0.164785
 2185\H,-4.5205142254,-2.0522073115,-0.4593475884\C,2.1083896963,0.5231
 169435,-0.5335795554\H,1.1222340557,1.6710826993,1.0044645408\H,1.6796
 578781,0.079678529,1.5329923925\S,3.7196759027,1.2786748317,-0.2221971
 867\H,2.2992244769,-0.5158893831,-0.8115038782\H,1.6838511435,1.058303
 9099,-1.38731362\O,3.5368064842,2.7041415169,0.0213484348\O,4.50787286
 84,0.4519592849,0.6950765286\O,4.3929072368,1.0932609922,-1.7204057104
 \H,5.2282364231,0.6079412846,-1.5820134255\C,-5.2101562389,2.884871011
 8,-0.8222956856\H,-5.1534618369,3.974162791,-0.8548053241\H,-5.5406937
 538,2.5052447287,-1.7994360506\H,-5.9339510754,2.5778487387,-0.0541863
 131\\Version=x86-Linux-G03RevB.04\State=1-A\HF=-3751.8626547\RMSD=3.62
 7e-09\RMSF=2.878e-06\Dipole=-2.6143332,-1.0193821,-0.9810618\PG=C01 [X
 (C11H12Br1N1O4S1)]\\@


 ... A MOLECULAR SYSTEM ... (PASSES) ... FROM ONE STATE OF EQUILIBRIUM 
 TO ANOTHER ... BY MEANS OF ALL POSSIBLE INTERMEDIATE PATHS, 
 BUT THE PATH MOST ECONOMICAL OF ENERGY WILL BE THE MORE OFTEN TRAVELED.

                      -- HENRY EYRING, 1945
 Job cpu time:  1 days  9 hours  7 minutes 11.0 seconds.
 File lengths (MBytes):  RWF=     80 Int=      0 D2E=      0 Chk=     11 Scr=      1
 Normal termination of Gaussian 03 at Wed Apr  6 05:45:43 2005.
