********************************************************************************
*                       GENERAL UTILITY LATTICE PROGRAM                        *
*            Julian Gale, Imperial College/Royal Institution of GB             *
*                                Version 1.0/MSI                               *
********************************************************************************
*  optimise     - perform optimisation run                                     *
*  property     - calculate properties for final geometry                      *
*  phonon       - calculate phonons for final geometry                         *
*  eigenvectors - output phonon eigenvectors                                   *
*  torsion      - calculate torsion angles for valid four body terms           *
*  molecule     - molecule option activated, coulomb subtract within molecule  *
********************************************************************************
* example of a molecular crystal - urea                                        *
********************************************************************************



  Running on host ibm12 at Tue Dec 10 10:07:16 1996.

  Total number of configurations input =   1

********************************************************************************
*  Input for Configuration =   1                                               *
********************************************************************************

  Formula = C2O2N4H8                                                    

  Number of irreducible atoms =   16


  Total number atoms =   16

  Dimensionality = 3


  Lattice vectors (Angstroms) :

        5.550830     .000000     .000000
         .000019    5.550830     .000000
         .000003    -.000003    4.695612

  Cell parameters (Angstroms/Degrees):

  a =   5.5508    alpha =  90.0000
  b =   5.5508    beta  =  90.0000
  c =   4.6956    gamma =  89.9998

  Temperature of configuration =       .000 K 

  Pressure of configuration =          .000 GPa 

  Fractional coordinates of asymmetric unit :

--------------------------------------------------------------------------------
   No.  Atomic       x           y          z         Charge      Occupancy
        Label      (Frac)      (Frac)     (Frac)        (e)         (Frac)  
--------------------------------------------------------------------------------
     1   C    c     .000000     .500000     .326000     .380000    1.000000    
     2   C    c     .499999 *   .000001 *   .615026 *   .380000    1.000000    
     3   O    c     .000000 *   .500000 *   .588166 *  -.380000    1.000000    
     4   O    c     .500000 *   .000000 *   .352857 *  -.380000    1.000000    
     5   N    c     .142932 *   .642932 *   .181010 *  -.830000    1.000000    
     6   N    c     .857068 *   .357068 *   .181010 *  -.830000    1.000000    
     7   N    c     .642933 *   .857067 *   .760014 *  -.830000    1.000000    
     8   N    c     .357068 *   .142932 *   .760013 *  -.830000    1.000000    
     9   H    c     .261677 *   .761677 *   .277315 *   .415000    1.000000    
    10   H    c     .738323 *   .238323 *   .277315 *   .415000    1.000000    
    11   H    c     .761678 *   .738322 *   .663710 *   .415000    1.000000    
    12   H    c     .238322 *   .261678 *   .663710 *   .415000    1.000000    
    13   H    c     .137859 *   .637859 *   .960432 *   .415000    1.000000    
    14   H    c     .862141 *   .362141 *   .960432 *   .415000    1.000000    
    15   H    c     .637858 *   .862142 *  -.019409 *   .415000    1.000000    
    16   H    c     .362141 *   .137859 *  -.019408 *   .415000    1.000000    
--------------------------------------------------------------------------------



  Molecule list generated from bondlengths :

  Total number of molecules =   2

--------------------------------------------------------------------------------
Molecule No./:  Atoms
Periodicity  :  
--------------------------------------------------------------------------------
   1  0      : C    c   1 O    c   3 N    c   5 N    c   6 H    c   9 H    c  10
             : H    c  13 H    c  14
   2  0      : C    c   2 O    c   4 N    c   7 N    c   8 H    c  11 H    c  12
             : H    c  15 H    c  16
--------------------------------------------------------------------------------


  Analysis of four-body terms :

--------------------------------------------------------------------------------
  Potential    Atom 1     Atom 2     Atom 3     Atom 4        Phi (degrees)
--------------------------------------------------------------------------------
       1      O       3  C       1  N       5  H       9          .000026
              O       3  C       1  N       5  H      13       179.999999
              O       3  C       1  N       6  H      10          .000021
              O       3  C       1  N       6  H      14       179.999996
              O       4  C       2  N       7  H      11          .000007
              O       4  C       2  N       7  H      15       180.000000
              O       4  C       2  N       8  H      12          .000003
              O       4  C       2  N       8  H      16       179.999996
--------------------------------------------------------------------------------
       2      N       5  C       1  N       6  H      10       179.999996
              N       5  C       1  N       6  H      14          .000028
              N       6  C       1  N       5  H       9       179.999999
              N       6  C       1  N       5  H      13          .000026
              N       7  C       2  N       8  H      12       179.999995
              N       7  C       2  N       8  H      16          .000002
              N       8  C       2  N       7  H      11       179.999995
              N       8  C       2  N       7  H      15          .000003
--------------------------------------------------------------------------------
       3      O       3  C       1  N       5  N       6       179.999975
              O       3  C       1  N       6  N       5       179.999975
              O       4  C       2  N       7  N       8       179.999998
              O       4  C       2  N       8  N       7       179.999998
--------------------------------------------------------------------------------

********************************************************************************
*  General input information                                                   *
********************************************************************************

  Species output for all configurations : 

--------------------------------------------------------------------------------
  Species    Type    Atomic    Atomic    Charge      Radii (Angs)     Library
                     Number     Mass       (e)     Covalent  Ionic    Symbol 
--------------------------------------------------------------------------------
    C        Core        6      12.01      .3800     .770     .000              
    O        Core        8      16.00     -.3800     .730     .000              
    N        Core        7      14.01     -.8300     .750     .000              
    H        Core        1       1.01      .4150     .370     .000              
--------------------------------------------------------------------------------


  Accuracy factor for lattice sums =  8.000

  Time limit = 1000000.00 seconds

  C6 terms to be calculated in real and reciprocal space 

  Intramolecular potentials :

--------------------------------------------------------------------------------
Atom  Types Potential          A          B         C         D     Cutoffs(Ang)
  1     2                                                            Min    Max 
--------------------------------------------------------------------------------
C    c O    c Morse             6.2880    2.0600    1.230     .000   .000  1.600
C    c N    c Morse             4.2060    2.0000    1.320     .000   .000  1.600
H    c N    c Morse             3.8160    2.2800    1.026     .000   .000  1.600
--------------------------------------------------------------------------------

  Intermolecular potentials :

--------------------------------------------------------------------------------
Atom  Types Potential          A          B         C         D     Cutoffs(Ang)
  1     2                                                            Min    Max 
--------------------------------------------------------------------------------
C    c O    c Lennard 12  6 39031.5700   35.2660     .000     .000   .000 40.000
C    c N    c Lennard 12  6 **********   55.3870     .000     .000   .000 40.000
O    c O    c Lennard 12  6 11833.8640   21.6330     .000     .000   .000 40.000
N    c O    c Lennard 12  6 34106.9190   33.9770     .000     .000   .000 40.000
N    c N    c Lennard 12  6 98301.1080   53.3620     .000     .000   .000 40.000
C    c C    c Lennard 12  6 **********   57.4880     .000     .000   .000 40.000
--------------------------------------------------------------------------------

  General Three-body potentials :

  Harmonic form:

--------------------------------------------------------------------------------
Atom    Atom    Atom           Force Constants            Theta     Cutoffs  
  1       2       3     (eVrad**-2/eVrad**-3/eVrad**-4)   (deg)  1-2  1-3  2-3
--------------------------------------------------------------------------------
C     c N     c O     c     5.8970     .0000     .0000   121.000 1.60 1.60 3.00
N     c H     c C     c     3.2520     .0000     .0000   120.000 1.40 1.60 2.60
N     c H     c H     c     2.8620     .0000     .0000   120.000 1.40 1.40 2.30
C     c N     c N     c     8.8460     .0000     .0000   118.000 1.60 1.60 2.80
--------------------------------------------------------------------------------

  General Four-body potentials :

  Standard form:

--------------------------------------------------------------------------------
         Atom Types             Force cst Sign Phase Phi0         Cutoffs
   1       2       3       4       (eV)                     1-2  2-3  3-4  4-1
--------------------------------------------------------------------------------
O     c C     c N     c H     c      .26020 -   2      .00  1.40 1.40 1.30  .00
N     c C     c N     c H     c      .00217 -   2      .00  1.60 1.60 1.30  .00
O     c C     c N     c N     c      .43400 -   2      .00  1.60 1.60 3.00  .00
--------------------------------------------------------------------------------

********************************************************************************
*  Output for configuration   1                                                *
********************************************************************************


  Components of energy : 

--------------------------------------------------------------------------------
  Interatomic potentials     =    -58.75443265 eV
  Three-body potentials      =       .02546153 eV
  Four-body potentials       =       .00000000 eV
  Monopole - monopole (real) =     18.63335466 eV
  Monopole - monopole (recip)=    -20.29103531 eV
  Monopole - monopole (total)=     -1.65768065 eV
  Dispersion (real+recip)    =     -1.69282019 eV
--------------------------------------------------------------------------------
  Total lattice energy       =    -62.07947196 eV
--------------------------------------------------------------------------------


  Number of variables =   51

  Maximum number of calculations  =        1000
  Maximum Hessian update interval =          10
  Maximum step size               =   1.0000000
  Maximum parameter tolerance     =    .0000100
  Maximum function  tolerance     =    .0000100
  Maximum gradient  tolerance     =    .0000100

  Symmetry not applied to optimisation

  Newton-Raphson optimiser to be used

  BFGS hessian update to be used

  Start of bulk optimisation :

  Cycle:      0   Energy:     -62.079472  Gnorm:       .000221  CPU:    1.770
  ** Hessian calculated **
  Cycle:      1   Energy:     -62.079474  Gnorm:       .000001  CPU:    4.350


  **** Optimisation achieved ****


  Final energy =     -62.07947403
  Final Gnorm  =        .00000082

  Components of energy : 

--------------------------------------------------------------------------------
  Interatomic potentials     =    -58.75337787 eV
  Three-body potentials      =       .02538993 eV
  Four-body potentials       =       .00000000 eV
  Monopole - monopole (real) =     18.63572688 eV
  Monopole - monopole (recip)=    -20.29335016 eV
  Monopole - monopole (total)=     -1.65762328 eV
  Dispersion (real+recip)    =     -1.69386280 eV
--------------------------------------------------------------------------------
  Total lattice energy       =    -62.07947403 eV
--------------------------------------------------------------------------------

  Final fractional coordinates of atoms :

--------------------------------------------------------------------------------
   No.  Atomic        x           y          z          Radius
        Label       (Frac)      (Frac)     (Frac)       (Angs) 
--------------------------------------------------------------------------------
     1  C     c      .000000     .500000     .326000     .000000
     2  C     c      .500000     .000000     .615274     .000000
     3  O     c      .000000     .500000     .588128     .000000
     4  O     c      .500000     .000000     .353147     .000000
     5  N     c      .142970     .642970     .181040     .000000
     6  N     c      .857030     .357030     .181040     .000000
     7  N     c      .642970     .857030     .760235     .000000
     8  N     c      .357030     .142970     .760235     .000000
     9  H     c      .261741     .761741     .277351     .000000
    10  H     c      .738259     .238259     .277351     .000000
    11  H     c      .761741     .738259     .663924     .000000
    12  H     c      .238259     .261741     .663924     .000000
    13  H     c      .137914     .637914     .960498     .000000
    14  H     c      .862086     .362086     .960498     .000000
    15  H     c      .637914     .862086     .980777     .000000
    16  H     c      .362086     .137914     .980777     .000000
--------------------------------------------------------------------------------

  Final cell parameters and derivatives :

--------------------------------------------------------------------------------
       a            5.549398 Angstrom     dE/de1(xx)     -.000015 eV/strain
       b            5.549398 Angstrom     dE/de2(yy)     -.000015 eV/strain
       c            4.696335 Angstrom     dE/de3(zz)     -.000028 eV/strain
       alpha       90.000000 Degrees      dE/de4(yz)      .000000 eV/strain
       beta        90.000000 Degrees      dE/de5(xz)      .000000 eV/strain
       gamma       90.000000 Degrees      dE/de6(xy)      .000000 eV/strain
--------------------------------------------------------------------------------

  Primitive cell volume =    144.627477 Angs**3

  Density of cell =      1.379408 g/cm**3


  Final internal derivatives :

--------------------------------------------------------------------------------
   No.  Atomic          x             y             z           Radius
        Label          (eV)          (eV)          (eV)        (eV/Angs)
--------------------------------------------------------------------------------
     1  C     c        .000000       .000000       .000000       .000000
     2  C     c       -.000002       .000002       .000007       .000000
     3  O     c        .000000       .000000       .000005       .000000
     4  O     c        .000000       .000000      -.000005       .000000
     5  N     c       -.000002      -.000002      -.000004       .000000
     6  N     c        .000002       .000002      -.000004       .000000
     7  N     c       -.000001       .000001       .000004       .000000
     8  N     c        .000004      -.000004       .000004       .000000
     9  H     c       -.000005      -.000005      -.000004       .000000
    10  H     c        .000005       .000005      -.000004       .000000
    11  H     c       -.000005       .000005       .000004       .000000
    12  H     c        .000004      -.000004       .000004       .000000
    13  H     c       -.000001      -.000001       .000004       .000000
    14  H     c        .000001       .000001       .000004       .000000
    15  H     c       -.000002       .000002      -.000004       .000000
    16  H     c        .000001      -.000001      -.000004       .000000
--------------------------------------------------------------------------------


  Analysis of four-body terms :

--------------------------------------------------------------------------------
  Potential    Atom 1     Atom 2     Atom 3     Atom 4        Phi (degrees)
--------------------------------------------------------------------------------
       1      O       3  C       1  N       5  H       9          .000000
              O       3  C       1  N       5  H      13       180.000000
              O       3  C       1  N       6  H      10          .000000
              O       3  C       1  N       6  H      14       179.999999
              O       4  C       2  N       7  H      11          .000000
              O       4  C       2  N       7  H      15       180.000000
              O       4  C       2  N       8  H      12          .000000
              O       4  C       2  N       8  H      16       180.000000
--------------------------------------------------------------------------------
       2      N       5  C       1  N       6  H      10       180.000000
              N       5  C       1  N       6  H      14          .000000
              N       6  C       1  N       5  H       9       180.000000
              N       6  C       1  N       5  H      13          .000000
              N       7  C       2  N       8  H      12       180.000000
              N       7  C       2  N       8  H      16          .000000
              N       8  C       2  N       7  H      11       180.000000
              N       8  C       2  N       7  H      15          .000000
--------------------------------------------------------------------------------
       3      O       3  C       1  N       5  N       6       180.000000
              O       3  C       1  N       6  N       5       180.000000
              O       4  C       2  N       7  N       8       180.000000
              O       4  C       2  N       8  N       7       180.000000
--------------------------------------------------------------------------------


  Elastic Constant Matrix: (Units=10**11 Dyne/cm**2)

-------------------------------------------------------------------------------
  Indices      1         2         3         4         5         6    
-------------------------------------------------------------------------------
       1     1.70988   1.70766   1.15882    .00000    .00000    .00001
       2     1.70766   1.70988   1.15882    .00000    .00000   -.00001
       3     1.15882   1.15882   6.87018    .00000    .00000    .00000
       4      .00000    .00000    .00000    .51300    .00000    .00000
       5      .00000    .00000    .00000    .00000    .51300    .00000
       6      .00001   -.00001    .00000    .00000    .00000   2.21802
-------------------------------------------------------------------------------


  Piezoelectric Stress Matrix: (Units= C/m**2)

-------------------------------------------------------------------------------
  Indices      1         2         3         4         5         6    
-------------------------------------------------------------------------------
       x      .00000    .00000    .00000   1.49181    .00001    .00000
       y      .00000    .00000    .00000   -.00001   1.49181    .00000
       z      .00000    .00000    .00000    .00000    .00000    .19244
-------------------------------------------------------------------------------


  Piezoelectric Strain Matrix: (Units=10**-7 C/dyne)

-------------------------------------------------------------------------------
  Indices      1         2         3         4         5         6    
-------------------------------------------------------------------------------
       x      .00000    .00000    .00000   2.90803    .00001    .00000
       y      .00000    .00000    .00000   -.00001   2.90803    .00000
       z      .00000    .00000    .00000    .00000    .00000    .08676
-------------------------------------------------------------------------------


  Static dielectric constant tensor : 

-------------------------------------------------------------------------------
              x         y         z
-------------------------------------------------------------------------------
       x     1.78210    .00000    .00000
       y      .00000   1.78210    .00000
       z      .00000    .00000   1.19911
--------------------------------------------------------------------------------


  Phonon Calculation : 

  Number of k points for this configuration =    1

--------------------------------------------------------------------------------
  K point   1 =    .000000   .000000   .000000  Weight =    1.000
--------------------------------------------------------------------------------

 Frequencies (cm-1) and Eigenvectors : 

 Frequency       -.0001               .0000               .0001
 IR Intensity     .0000               .0000               .0000

                Real    Imaginary   Real    Imaginary   Real    Imaginary

     1 x        .007507   .311035   .291619  -.308873   .121936  -.307568
     1 y       -.235353   .056779   .086576  -.067559  -.192563  -.073269
     1 z       -.210996   .000000  -.086194   .000000   .219130   .000000
     2 x        .007507   .311035   .291619  -.308873   .121936  -.307568
     2 y       -.235353   .056779   .086576  -.067559  -.192563  -.073269
     2 z       -.210996   .000000  -.086194   .000000   .219130   .000000
     3 x        .008665   .359003   .336593  -.356507   .140741  -.355002
     3 y       -.271649   .065535   .099927  -.077978  -.222259  -.084569
     3 z       -.243536   .000000  -.099487   .000000   .252924   .000000
     4 x        .008665   .359003   .336593  -.356507   .140741  -.355002
     4 y       -.271649   .065535   .099927  -.077978  -.222259  -.084569
     4 z       -.243536   .000000  -.099487   .000000   .252924   .000000
     5 x        .008108   .335937   .314966  -.333601   .131698  -.332192
     5 y       -.254195   .061324   .093507  -.072968  -.207979  -.079135
     5 z       -.227888   .000000  -.093095   .000000   .236673   .000000
     6 x        .008108   .335936   .314966  -.333601   .131698  -.332192
     6 y       -.254195   .061324   .093507  -.072968  -.207979  -.079135
     6 z       -.227888   .000000  -.093095   .000000   .236673   .000000
     7 x        .008108   .335937   .314966  -.333601   .131698  -.332192
     7 y       -.254195   .061324   .093507  -.072968  -.207979  -.079135
     7 z       -.227888   .000000  -.093095   .000000   .236673   .000000
     8 x        .008108   .335936   .314966  -.333601   .131698  -.332192
     8 y       -.254195   .061324   .093507  -.072968  -.207979  -.079135
     8 z       -.227888   .000000  -.093095   .000000   .236673   .000000
     9 x        .002177   .090198   .084568  -.089571   .035361  -.089193
     9 y       -.068251   .016465   .025106  -.019592  -.055842  -.021248
     9 z       -.061188   .000000  -.024996   .000000   .063546   .000000
    10 x        .002177   .090198   .084568  -.089571   .035361  -.089193
    10 y       -.068251   .016466   .025106  -.019592  -.055842  -.021248
    10 z       -.061188   .000000  -.024996   .000000   .063546   .000000
    11 x        .002177   .090198   .084568  -.089571   .035361  -.089193
    11 y       -.068251   .016466   .025106  -.019592  -.055842  -.021248
    11 z       -.061188   .000000  -.024996   .000000   .063546   .000000
    12 x        .002177   .090198   .084568  -.089571   .035361  -.089193
    12 y       -.068251   .016465   .025106  -.019592  -.055842  -.021248
    12 z       -.061188   .000000  -.024996   .000000   .063546   .000000
    13 x        .002177   .090198   .084568  -.089571   .035361  -.089193
    13 y       -.068251   .016465   .025106  -.019592  -.055842  -.021248
    13 z       -.061188   .000000  -.024996   .000000   .063546   .000000
    14 x        .002177   .090198   .084568  -.089571   .035361  -.089193
    14 y       -.068251   .016465   .025106  -.019592  -.055842  -.021248
    14 z       -.061188   .000000  -.024996   .000000   .063546   .000000
    15 x        .002177   .090198   .084568  -.089571   .035361  -.089193
    15 y       -.068251   .016466   .025106  -.019592  -.055842  -.021248
    15 z       -.061188   .000000  -.024996   .000000   .063546   .000000
    16 x        .002177   .090198   .084568  -.089571   .035361  -.089193
    16 y       -.068251   .016465   .025106  -.019592  -.055842  -.021248
    16 z       -.061188   .000000  -.024996   .000000   .063546   .000000


 Frequency      50.7110            111.0959            111.0959
 IR Intensity     .0000               .0007               .0007

                Real    Imaginary   Real    Imaginary   Real    Imaginary

     1 x        .000000   .000000  -.017515  -.017906  -.036664  -.017906
     1 y        .000000   .000000  -.018295  -.017906   .036281  -.017905
     1 z        .000000   .000000   .000000   .000000   .000000   .000001
     2 x        .000000   .000000   .036281   .036475   .018295   .036476
     2 y        .000000   .000000   .036664   .036474  -.017515   .036473
     2 z        .000000   .000000   .000000   .000000   .000000   .000000
     3 x        .000000   .000000  -.326707  -.330153  -.324137  -.330151
     3 y        .000000   .000000  -.333562  -.330152   .317078  -.330154
     3 z        .000000   .000000   .000000   .000000   .000000   .000001
     4 x        .000000   .000000   .317078   .320626   .333561   .320627
     4 y        .000000   .000000   .324137   .320625  -.326707   .320624
     4 z        .000000   .000000   .000000   .000000   .000000  -.000001
     5 x        .316366  -.316366   .137851   .139429   .148308   .139426
     5 y       -.316367   .316367   .140990   .139428  -.145327   .139431
     5 z        .000000   .000000   .365007   .365028   .003903   .365028
     6 x       -.316366   .316366   .137851   .139428   .148308   .139427
     6 y        .316367  -.316367   .140990   .139428  -.145327   .139430
     6 z        .000000   .000000  -.365007  -.365028  -.003903  -.365027
     7 x        .316367  -.316367  -.145327  -.146826  -.140990  -.146825
     7 y        .316366  -.316366  -.148308  -.146826   .137851  -.146827
     7 z        .000000   .000000  -.003903   .000000   .365007  -.000001
     8 x       -.316367   .316367  -.145327  -.146826  -.140990  -.146826
     8 y       -.316366   .316366  -.148308  -.146826   .137851  -.146828
     8 z        .000000   .000000   .003903   .000000  -.365007   .000000
     9 x        .134863  -.134863   .009989   .010245   .023966   .010244
     9 y       -.134864   .134864   .010499   .010244  -.023747   .010245
     9 z        .000000   .000000   .175537   .175547   .001877   .175548
    10 x       -.134863   .134863   .009989   .010245   .023966   .010245
    10 y        .134864  -.134864   .010499   .010245  -.023747   .010245
    10 z        .000000   .000000  -.175537  -.175547  -.001877  -.175547
    11 x        .134864  -.134864  -.023747  -.023858  -.010499  -.023858
    11 y        .134863  -.134863  -.023966  -.023858   .009989  -.023858
    11 z        .000000   .000000  -.001877   .000000   .175537   .000000
    12 x       -.134864   .134864  -.023747  -.023858  -.010499  -.023858
    12 y       -.134863   .134863  -.023966  -.023858   .009989  -.023859
    12 z        .000000   .000000   .001877   .000000  -.175537   .000000
    13 x        .081999  -.081999   .098349   .099113   .072058   .099112
    13 y       -.081999   .081999   .099866   .099113  -.069939   .099114
    13 z        .000000   .000000   .097004   .097010   .001037   .097010
    14 x       -.081999   .081999   .098349   .099113   .072058   .099113
    14 y        .081999  -.081999   .099867   .099113  -.069939   .099114
    14 z        .000000   .000000  -.097004  -.097010  -.001037  -.097010
    15 x        .081999  -.081999  -.069939  -.071003  -.099866  -.071002
    15 y        .081999  -.081999  -.072058  -.071002   .098349  -.071003
    15 z        .000000   .000000  -.001037   .000000   .097005   .000000
    16 x       -.081999   .081999  -.069939  -.071003  -.099867  -.071002
    16 y       -.081999   .081999  -.072058  -.071002   .098349  -.071003
    16 z        .000000   .000000   .001037   .000000  -.097004   .000000


 Frequency     113.9267            116.9871            116.9871
 IR Intensity     .0000               .0022               .0022

                Real    Imaginary   Real    Imaginary   Real    Imaginary

     1 x        .000000  -.022764   .173630   .186552   .188609  -.186554
     1 y        .000000  -.021268  -.178019   .186556   .184473  -.186554
     1 z        .323682  -.151470   .000000   .000000   .000000   .000000
     2 x        .000000   .068672  -.184473  -.175835  -.178019   .175837
     2 y        .000000   .041344   .188609  -.175839  -.173630   .175836
     2 z       -.323682   .141203   .000000   .000000   .000000   .000000
     3 x        .000000  -.373287  -.063069   .337762   .337042  -.337760
     3 y        .000000  -.132396   .055125   .337757   .338431  -.337759
     3 z        .375478  -.172617   .000000   .000000   .000000   .000000
     4 x        .000000   .366726  -.338431   .059104   .055125  -.059101
     4 y        .000000   .083690   .337042   .059098   .063069  -.059101
     4 z       -.375478   .166494   .000000   .000000   .000000   .000000
     5 x       -.012396   .064950   .330878   .142004   .145909  -.142008
     5 y       -.012395   .135466  -.334219   .142011   .138086  -.142007
     5 z        .334849   .106602   .001493  -.126986  -.126977   .126986
     6 x        .012396   .285421   .330878   .142001   .145909  -.142008
     6 y        .012396  -.113309  -.334219   .142014   .138086  -.142007
     6 z        .334849  -.427008  -.001493   .126987   .126977  -.126986
     7 x       -.012396   .017950  -.138086  -.332571  -.334220   .332573
     7 y        .012396   .108046   .145909  -.332575  -.330878   .332571
     7 z       -.334849   .291596  -.126977   .000000  -.001493   .000000
     8 x        .012395  -.225325  -.138086  -.332569  -.334219   .332572
     8 y       -.012396  -.115605   .145909  -.332572  -.330878   .332571
     8 z       -.334849  -.006089   .126977   .000000   .001493   .000000
     9 x        .001213  -.019709   .048016   .043225   .043793  -.043225
     9 y        .001213   .032555  -.049033   .043225   .042651  -.043225
     9 z        .079069   .085685   .000586  -.049804  -.049801   .049804
    10 x       -.001213   .065499   .048016   .043224   .043793  -.043225
    10 y       -.001213  -.055040  -.049033   .043226   .042651  -.043225
    10 z        .079069  -.167564  -.000586   .049805   .049801  -.049804
    11 x        .001213   .027898  -.042651  -.048528  -.049033   .048528
    11 y       -.001213   .036555   .043793  -.048529  -.048016   .048528
    11 z       -.079069   .100584  -.049801   .000000  -.000586   .000000
    12 x       -.001213  -.055176  -.042651  -.048527  -.049033   .048528
    12 y        .001213  -.052851   .043793  -.048528  -.048016   .048528
    12 z       -.079069  -.039942   .049801   .000000   .000586   .000000
    13 x       -.012414   .089165   .113822   .020857   .022198  -.020858
    13 y       -.012414   .063595  -.114313   .020859   .019515  -.020858
    13 z        .090160   .028830   .000410  -.034861  -.034859   .034861
    14 x        .012414   .119501   .113822   .020856   .022198  -.020858
    14 y        .012414   .007244  -.114313   .020860   .019515  -.020858
    14 z        .090160  -.112573  -.000410   .034862   .034859  -.034861
    15 x       -.012414  -.044531  -.019515  -.114075  -.114313   .114075
    15 y        .012414   .021310   .022198  -.114076  -.113822   .114075
    15 z       -.090160   .079128  -.034859   .000000  -.000410   .000000
    16 x        .012414  -.097942  -.019515  -.114074  -.114313   .114075
    16 y       -.012414  -.009841   .022198  -.114075  -.113822   .114075
    16 z       -.090160   .000000   .034859   .000000   .000410   .000000


 Frequency     121.6148            231.4250            231.4250
 IR Intensity     .0000               .0187               .0187

                Real    Imaginary   Real    Imaginary   Real    Imaginary

     1 x        .000000   .000000  -.151377   .124109   .123369  -.124109
     1 y        .000000   .000000   .150163   .124107   .124844  -.124108
     1 z        .000000   .000000   .000000   .000000   .000000   .000000
     2 x        .000000   .000000   .124844  -.150773  -.150163   .150772
     2 y        .000000   .000000  -.123369  -.150771  -.151377   .150772
     2 z        .000000   .000000   .000000   .000000   .000000   .000000
     3 x        .000000   .000000  -.521812  -.046561  -.049118   .046564
     3 y        .000000   .000000   .522270  -.046566  -.044008   .046563
     3 z        .000000   .000000   .000000   .000000   .000000   .000000
     4 x        .000000   .000000  -.044008  -.522049  -.522270   .522048
     4 y        .000000   .000000   .049118  -.522046  -.521812   .522047
     4 z        .000000   .000000   .000000   .000000   .000000   .000000
     5 x        .327174  -.327174   .042396   .219900   .220110  -.219900
     5 y       -.327175   .327175  -.044549   .219899   .219684  -.219899
     5 z        .000000   .000000  -.001018   .208119   .208117  -.208119
     6 x       -.327174   .327174   .042396   .219899   .220110  -.219900
     6 y        .327175  -.327175  -.044549   .219900   .219684  -.219899
     6 z        .000000   .000000   .001018  -.208119  -.208117   .208119
     7 x       -.327175   .327175   .219684   .043473   .044549  -.043473
     7 y       -.327174   .327174  -.220110   .043474   .042396  -.043473
     7 z        .000000   .000000  -.208117   .000000  -.001018   .000000
     8 x        .327175  -.327175   .219684   .043473   .044549  -.043473
     8 y        .327174  -.327174  -.220110   .043474   .042396  -.043473
     8 z        .000000   .000000   .208117   .000000   .001018   .000000
     9 x        .117930  -.117930  -.009262   .049786   .049742  -.049786
     9 y       -.117930   .117930   .008774   .049786   .049830  -.049786
     9 z        .000000   .000000  -.000464   .094839   .094838  -.094839
    10 x       -.117930   .117930  -.009262   .049786   .049741  -.049786
    10 y        .117930  -.117930   .008774   .049786   .049830  -.049786
    10 z        .000000   .000000   .000464  -.094839  -.094838   .094839
    11 x       -.117930   .117930   .049830  -.009018  -.008774   .009018
    11 y       -.117930   .117930  -.049741  -.009018  -.009262   .009018
    11 z        .000000   .000000  -.094838   .000000  -.000464   .000000
    12 x        .117930  -.117930   .049830  -.009018  -.008774   .009018
    12 y        .117930  -.117930  -.049742  -.009018  -.009262   .009018
    12 z        .000000   .000000   .094838   .000000   .000464   .000000
    13 x        .063634  -.063634   .055892   .099493   .099768  -.099493
    13 y       -.063634   .063634  -.056866   .099493   .099216  -.099493
    13 z        .000000   .000000  -.000272   .055575   .055574  -.055575
    14 x       -.063634   .063634   .055892   .099494   .099768  -.099493
    14 y        .063634  -.063634  -.056866   .099493   .099216  -.099493
    14 z        .000000   .000000   .000272  -.055575  -.055574   .055575
    15 x       -.063634   .063634   .099216   .056379   .056866  -.056379
    15 y       -.063634   .063634  -.099768   .056379   .055892  -.056379
    15 z        .000000   .000000  -.055574   .000000  -.000272   .000000
    16 x        .063634  -.063634   .099216   .056379   .056866  -.056379
    16 y        .063634  -.063634  -.099768   .056380   .055892  -.056379
    16 z        .000000   .000000   .055574   .000000   .000272   .000000


 Frequency     517.4567            517.4567            530.4119
 IR Intensity     .0002               .0002               .0000

                Real    Imaginary   Real    Imaginary   Real    Imaginary

     1 x        .052827  -.168231   .169528   .168231   .000000  -.017589
     1 y       -.060785  -.168230   .166839   .168230   .000000   .007591
     1 z        .000000   .000000   .000000   .000000  -.143185  -.187594
     2 x        .166839  -.056822   .060785   .056822   .000000   .002603
     2 y       -.169528  -.056822   .052827   .056822   .000000  -.053611
     2 z        .000000   .000000   .000000   .000000   .143185  -.093174
     3 x        .010328   .432877  -.432753  -.432877   .000000   .026250
     3 y        .010149   .432875  -.432756  -.432875   .000000   .007629
     3 z        .000000   .000000   .000000   .000000  -.246573  -.300282
     4 x       -.432756  -.000090  -.010149   .000090   .000000  -.085523
     4 y        .432753  -.000090   .010328   .000090   .000000   .092155
     4 z        .000000   .000000   .000000   .000000   .246573  -.136386
     5 x       -.020667  -.149744   .149297   .149744   .212810   .244849
     5 y        .013584  -.149744   .150107   .149744   .212809   .263281
     5 z        .009203   .389092  -.388984  -.389092   .183699   .215813
     6 x       -.020667  -.149744   .149297   .149744  -.212810  -.269916
     6 y        .013584  -.149744   .150107   .149744  -.212809  -.255807
     6 z       -.009203  -.389092   .388984   .389092   .183699   .188436
     7 x        .150107   .017130  -.013584  -.017130   .212809  -.087755
     7 y       -.149297   .017130  -.020667  -.017130  -.212810   .094717
     7 z        .388983   .000000   .009203   .000000  -.183699   .152909
     8 x        .150107   .017130  -.013584  -.017130  -.212809   .141630
     8 y       -.149297   .017130  -.020667  -.017130   .212810  -.141788
     8 z       -.388984   .000000  -.009203   .000000  -.183699   .003828
     9 x       -.105877  -.072147   .069663   .072147   .021554   .053789
     9 y        .102465  -.072147   .074592   .072147   .021554  -.018900
     9 z        .004632   .195823  -.195768  -.195823   .164874   .219409
    10 x       -.105877  -.072147   .069663   .072147  -.021554   .003709
    10 y        .102465  -.072147   .074591   .072147  -.021554  -.047149
    10 z       -.004632  -.195823   .195768   .195823   .164874   .205914
    11 x        .074592   .104200  -.102464  -.104200   .021554   .045135
    11 y       -.069663   .104200  -.105877  -.104200  -.021554   .029204
    11 z        .195768   .000000   .004632   .000000  -.164874   .140842
    12 x        .074591   .104200  -.102464  -.104200  -.021554   .067731
    12 y       -.069663   .104200  -.105877  -.104200   .021554   .032278
    12 z       -.195768   .000000  -.004632   .000000  -.164874   .065368
    13 x        .032826   .020950  -.020179  -.020950   .165376   .236801
    13 y       -.031836   .020950  -.021709  -.020950   .165375   .217888
    13 z        .002460   .104019  -.103990  -.104019   .047098   .055031
    14 x        .032826   .020950  -.020179  -.020950  -.165376  -.201281
    14 y       -.031836   .020950  -.021709  -.020950  -.165375  -.250577
    14 z       -.002460  -.104019   .103990   .104019   .047098   .048770
    15 x       -.021709  -.032340   .031836   .032340   .165375  -.122911
    15 y        .020179  -.032340   .032826   .032340  -.165376   .122587
    15 z        .103990   .000000   .002460   .000000  -.047098   .040022
    16 x       -.021709  -.032340   .031836   .032340  -.165375   .103198
    16 y        .020179  -.032340   .032826   .032340   .165376  -.119904
    16 z       -.103990   .000000  -.002460   .000000  -.047098   .000000


 Frequency     542.5312            586.6130            586.6130
 IR Intensity     .0531               .1037               .1037

                Real    Imaginary   Real    Imaginary   Real    Imaginary

     1 x        .000000   .063676  -.282340  -.028666   .022539   .028668
     1 y        .000000  -.051636   .281095  -.028669   .034783   .028668
     1 z       -.163403  -.208915   .000000   .000000   .000000   .000000
     2 x        .000000  -.047051   .034783   .281785  -.281095  -.281785
     2 y        .000000   .010721  -.022539   .281784  -.282340  -.281784
     2 z       -.163403   .018547   .000000   .000000   .000000   .000000
     3 x        .000000   .000607   .056019   .123347  -.122159  -.123348
     3 y        .000000   .006064  -.050660   .123348  -.124477  -.123347
     3 z       -.259509  -.353926   .000000   .000000   .000000   .000000
     4 x        .000000   .068250  -.124477  -.053352   .050660   .053352
     4 y        .000000  -.072047   .122159  -.053353   .056019   .053352
     4 z       -.259509   .050175   .000000   .000000   .000000   .000000
     5 x        .210594   .285914   .030061  -.033591   .034251   .033590
     5 y        .210593   .282478  -.031521  -.033590   .032913   .033590
     5 z        .156471   .228832   .001694   .077999  -.077980  -.077999
     6 x       -.210594  -.276998   .030061  -.033590   .034252   .033590
     6 y       -.210594  -.278288  -.031521  -.033590   .032913   .033590
     6 z        .156471   .243928  -.001695  -.077999   .077980   .077999
     7 x       -.210593   .017267   .032913  -.030798   .031521   .030798
     7 y        .210594  -.005902  -.034252  -.030798   .030061   .030798
     7 z        .156471  -.114971   .077981  -.000001   .001694   .000000
     8 x        .210594  -.057203   .032913  -.030799   .031521   .030798
     8 y       -.210594   .073639  -.034251  -.030798   .030061   .030798
     8 z        .156471   .001729  -.077981   .000000  -.001694   .000000
     9 x        .012701  -.069991   .428867  -.018303   .027624   .018300
     9 y        .012701   .116838  -.429663  -.018298   .008968   .018300
     9 z        .174515   .225995   .001014   .046690  -.046679  -.046690
    10 x       -.012701  -.113797   .428867  -.018303   .027624   .018300
    10 y       -.012701   .065228  -.429663  -.018298   .008968   .018300
    10 z        .174515   .225741  -.001015  -.046690   .046679   .046690
    11 x       -.012701   .016284   .008968  -.429367   .429663   .429367
    11 y        .012701   .025291  -.027624  -.429366   .428867   .429366
    11 z        .174515  -.057770   .046679  -.000001   .001014   .000000
    12 x        .012701  -.000937   .008968  -.429367   .429663   .429367
    12 y       -.012701   .043103  -.027624  -.429365   .428867   .429365
    12 z        .174515   .005296  -.046679   .000000  -.001014   .000000
    13 x        .169328   .229152  -.097672   .013771  -.015896  -.013770
    13 y        .169327   .219808   .098271   .013770  -.011638  -.013770
    13 z        .040899   .059654   .000396   .018208  -.018204  -.018208
    14 x       -.169328  -.222367  -.097672   .013771  -.015896  -.013770
    14 y       -.169327  -.226962   .098271   .013770  -.011638  -.013770
    14 z        .040899   .064273  -.000395  -.018208   .018204   .018208
    15 x       -.169327   .011134  -.011638   .097995  -.098271  -.097995
    15 y        .169328  -.047605   .015896   .097994  -.097672  -.097995
    15 z        .040899  -.029714   .018204   .000000   .000396   .000000
    16 x        .169327  -.051543  -.011638   .097995  -.098271  -.097995
    16 y       -.169328   .012105   .015896   .097995  -.097672  -.097994
    16 z        .040899   .000000  -.018204   .000000  -.000396   .000000


 Frequency     704.5358            718.1476            732.7758
 IR Intensity     .0000               .0000               .0000

                Real    Imaginary   Real    Imaginary   Real    Imaginary

     1 x        .000000   .000000   .000000   .000000   .000000   .000000
     1 y        .000000   .000000   .000000   .000000   .000000   .000000
     1 z        .000000   .000000   .000000   .000000   .000000   .000000
     2 x        .000000   .000000   .000000   .000000   .000000   .000000
     2 y        .000000   .000000   .000000   .000000   .000000   .000000
     2 z        .000000   .000000   .000000   .000000   .000000   .000000
     3 x        .000000   .000000   .000000   .000000   .000000   .000000
     3 y        .000000   .000000   .000000   .000000   .000000   .000000
     3 z        .000000   .000000   .000000   .000000   .000000   .000000
     4 x        .000000   .000000   .000000   .000000   .000000   .000000
     4 y        .000000   .000000   .000000   .000000   .000000   .000000
     4 z        .000000   .000000   .000000   .000000   .000000   .000000
     5 x        .032988  -.032988   .096199   .096200  -.125131   .125131
     5 y       -.032988   .032989  -.096200  -.096200   .125131  -.125131
     5 z        .000000   .000000   .000000   .000000   .000000   .000000
     6 x       -.032988   .032988  -.096199  -.096199   .125131  -.125131
     6 y        .032988  -.032988   .096200   .096200  -.125131   .125131
     6 z        .000000   .000000   .000000   .000000   .000000   .000000
     7 x       -.032988   .032988   .096200   .096200  -.125131   .125131
     7 y       -.032988   .032987   .096200   .096199  -.125131   .125131
     7 z        .000000   .000000   .000000   .000000   .000000   .000000
     8 x        .032988  -.032987  -.096200  -.096200   .125131  -.125131
     8 y        .032988  -.032987  -.096199  -.096199   .125130  -.125130
     8 z        .000000   .000000   .000000   .000000   .000000   .000000
     9 x       -.233606   .233607  -.019140  -.019140   .326259  -.326259
     9 y        .233607  -.233608   .019140   .019140  -.326260   .326260
     9 z        .000000   .000000   .000000   .000000   .000000   .000000
    10 x        .233606  -.233607   .019140   .019140  -.326259   .326259
    10 y       -.233607   .233607  -.019140  -.019140   .326260  -.326260
    10 z        .000000   .000000   .000000   .000000   .000000   .000000
    11 x        .233607  -.233606  -.019140  -.019140   .326260  -.326260
    11 y        .233606  -.233605  -.019140  -.019139   .326259  -.326259
    11 z        .000000   .000000   .000000   .000000   .000000   .000000
    12 x       -.233607   .233606   .019140   .019140  -.326260   .326260
    12 y       -.233606   .233605   .019139   .019140  -.326259   .326259
    12 z        .000000   .000000   .000000   .000000   .000000   .000000
    13 x        .263324  -.263323  -.339675  -.339675  -.053822   .053822
    13 y       -.263325   .263324   .339676   .339676   .053822  -.053822
    13 z        .000000   .000000   .000000   .000000   .000000   .000000
    14 x       -.263324   .263325   .339675   .339675   .053822  -.053822
    14 y        .263325  -.263326  -.339676  -.339676  -.053822   .053822
    14 z        .000000   .000000   .000000   .000000   .000000   .000000
    15 x       -.263325   .263325  -.339676  -.339676  -.053822   .053822
    15 y       -.263324   .263324  -.339675  -.339675  -.053822   .053822
    15 z        .000000   .000000   .000000   .000000   .000000   .000000
    16 x        .263325  -.263325   .339676   .339676   .053823  -.053823
    16 y        .263324  -.263325   .339675   .339675   .053822  -.053822
    16 z        .000000   .000000   .000000   .000000   .000000   .000000


 Frequency     743.9362            743.9362            824.3871
 IR Intensity     .6133               .6133               .0000

                Real    Imaginary   Real    Imaginary   Real    Imaginary

     1 x       -.032424   .018614  -.017805   .018612   .000000  -.064679
     1 y        .031492   .018610  -.019407   .018612   .000000   .030305
     1 z        .000000   .000000   .000000   .000000   .092582  -.004516
     2 x       -.019407   .031969  -.031492   .031968   .000000  -.140903
     2 y        .017805   .031967  -.032424   .031968   .000000  -.137227
     2 z        .000000   .000000   .000000   .000000  -.092582  -.019585
     3 x        .071885  -.007071   .005268  -.007068   .000000   .005185
     3 y       -.071531  -.007065   .008863  -.007068   .000000  -.033989
     3 z        .000000   .000000   .000000   .000000   .380690  -.092960
     4 x        .008863  -.071731   .071531  -.071731   .000000   .086615
     4 y       -.005268  -.071731   .071885  -.071731   .000000   .062261
     4 z        .000000   .000001   .000000   .000000  -.380690  -.153133
     5 x       -.163420   .014272  -.010176   .014267   .219079  -.265336
     5 y        .162706   .014263  -.018349   .014268   .219079  -.118057
     5 z        .000262  -.010437   .010433  -.010437  -.194019   .045855
     6 x       -.163420   .014275  -.010176   .014267  -.219080   .165341
     6 y        .162706   .014258  -.018349   .014267  -.219079   .211010
     6 z       -.000261   .010436  -.010433   .010437  -.194019   .027417
     7 x       -.018349   .163113  -.162706   .163115   .219079   .120548
     7 y        .010176   .163111  -.163420   .163114  -.219080  -.277381
     7 z       -.010433  -.000001   .000261   .000000   .194020   .073298
     8 x       -.018349   .163117  -.162706   .163115  -.219079  -.278591
     8 y        .010176   .163116  -.163420   .163114   .219080   .165888
     8 z        .010433   .000000  -.000261   .000000   .194020   .044167
     9 x        .104349  -.005426   .002809  -.005422   .088510   .010086
     9 y       -.104078  -.005418   .008033  -.005423   .088510  -.104443
     9 z       -.000443   .017673  -.017667   .017673  -.127777   .018008
    10 x        .104349  -.005427   .002809  -.005422  -.088510   .073399
    10 y       -.104078  -.005418   .008032  -.005423  -.088510   .114936
    10 z        .000443  -.017673   .017667  -.017673  -.127777   .119684
    11 x        .008033  -.104243   .104077  -.104246   .088510   .262963
    11 y       -.002809  -.104242   .104349  -.104246  -.088510   .146287
    11 z        .017667  -.000001  -.000443   .000000   .127777   .037535
    12 x        .008033  -.104250   .104078  -.104246  -.088510   .027976
    12 y       -.002809  -.104249   .104349  -.104246   .088510   .209473
    12 z       -.017667   .000000   .000443   .000000   .127777   .107364
    13 x        .456739  -.025123   .013674  -.025112   .047807   .181382
    13 y       -.455483  -.025103   .036536  -.025114   .047807  -.137363
    13 z        .000055  -.002219   .002219  -.002219  -.055235   .003281
    14 x        .456739  -.025136   .013674  -.025112  -.047807   .086815
    14 y       -.455483  -.025089   .036536  -.025114  -.047807  -.121252
    14 z       -.000056   .002219  -.002219   .002219  -.055235  -.001615
    15 x        .036536  -.456252   .455483  -.456255   .047807   .273252
    15 y       -.013674  -.456248   .456739  -.456254  -.047807   .217792
    15 z       -.002219   .000000   .000056   .000000   .055235   .014616
    16 x        .036536  -.456260   .455483  -.456255  -.047807   .321292
    16 y       -.013674  -.456257   .456740  -.456253   .047807   .237080
    16 z        .002219   .000000  -.000056   .000000   .055236   .000000


 Frequency     827.0262            962.1519           1042.4342
 IR Intensity     .0291               .0000               .0849

                Real    Imaginary   Real    Imaginary   Real    Imaginary

     1 x        .000000  -.044530   .000000   .000000  -.119840  -.120854
     1 y        .000000   .028032   .000000   .000000  -.121851  -.120854
     1 z        .090466  -.074033   .000000   .000000   .000000   .000000
     2 x        .000000  -.064284   .000000   .000000   .083170   .084612
     2 y        .000000  -.052314   .000000   .000000   .086043   .084612
     2 z        .090466  -.027589   .000000   .000000   .000000   .000000
     3 x        .000000   .044165   .000000   .000000   .004586   .005005
     3 y        .000000  -.038692   .000000   .000000   .005422   .005004
     3 z        .376233  -.349127   .000000   .000000   .000000   .000000
     4 x        .000000   .036910   .000000   .000000  -.035115  -.035177
     4 y        .000000   .047667   .000000   .000000  -.035234  -.035177
     4 z        .376233  -.097720   .000000   .000000   .000000   .000000
     5 x        .224899  -.269554  -.129879   .129879  -.012455  -.012243
     5 y        .224898  -.153215   .129879  -.129879  -.012030  -.012243
     5 z       -.195414   .233614   .000000   .000000  -.288043  -.288064
     6 x       -.224899   .186587   .129879  -.129879  -.012455  -.012243
     6 y       -.224898   .244588  -.129879   .129879  -.012030  -.012243
     6 z       -.195414   .188299   .000000   .000000   .288043   .288064
     7 x       -.224898  -.025094   .129879  -.129879  -.018000  -.017855
     7 y        .224899  -.145312   .129879  -.129879  -.017709  -.017855
     7 z       -.195414   .056192   .000000   .000000   .003424   .000000
     8 x        .224898  -.135587  -.129879   .129879  -.018000  -.017855
     8 y       -.224899   .001056  -.129879   .129879  -.017709  -.017855
     8 z       -.195414  -.005915   .000000   .000000  -.003424   .000000
     9 x        .087236   .035995   .237740  -.237740  -.137005  -.137458
     9 y        .087236  -.175166  -.237741   .237741  -.137891  -.137458
     9 z       -.119619   .105072   .000000   .000000   .297139   .297160
    10 x       -.087236   .114330  -.237740   .237740  -.137005  -.137458
    10 y       -.087236   .108060   .237741  -.237741  -.137891  -.137457
    10 z       -.119619   .194307   .000000   .000000  -.297139  -.297160
    11 x       -.087236   .093152  -.237741   .237741   .035654   .037291
    11 y        .087236   .083829  -.237740   .237740   .038922   .037291
    11 z       -.119618  -.028909   .000000   .000000  -.003532   .000000
    12 x        .087235   .014725   .237741  -.237741   .035654   .037291
    12 y       -.087236   .071473   .237740  -.237740   .038922   .037291
    12 z       -.119619   .014855   .000000   .000000   .003532   .000000
    13 x        .038575   .116109   .227180  -.227180   .355224   .355495
    13 y        .038575  -.136931  -.227181   .227181   .355715   .355494
    13 z       -.057288   .061150   .000000   .000000  -.102808  -.102815
    14 x       -.038575   .169696  -.227180   .227180   .355224   .355495
    14 y       -.038575  -.138112   .227181  -.227181   .355715   .355494
    14 z       -.057288   .051947   .000000   .000000   .102808   .102815
    15 x       -.038575   .339200  -.227181   .227181  -.016467  -.020694
    15 y        .038575   .211305  -.227180   .227180  -.024918  -.020694
    15 z       -.057288   .023909   .000000   .000000   .001222   .000000
    16 x        .038575   .268573   .227181  -.227181  -.016467  -.020694
    16 y       -.038575   .273704   .227180  -.227180  -.024918  -.020694
    16 z       -.057288   .000000   .000000   .000000  -.001222   .000000


 Frequency    1042.4343           1058.8659           1078.4231
 IR Intensity     .0849               .1581               .1095

                Real    Imaginary   Real    Imaginary   Real    Imaginary

     1 x       -.086043  -.120855   .000000  -.019051   .551867  -.019566
     1 y        .083170  -.120854   .000000   .039074  -.550947  -.019574
     1 z        .000000   .000000   .036627  -.040802   .000000   .000000
     2 x        .121851   .084612   .000000  -.050531   .032554  -.551561
     2 y       -.119840   .084612   .000000  -.134264  -.006575  -.551559
     2 z        .000000   .000000   .036627  -.023832   .000000   .000000
     3 x        .035234   .005005   .000000   .009457  -.212933   .006680
     3 y       -.035115   .005004   .000000  -.013572   .212619   .006683
     3 z        .000000  -.000002  -.257370   .298804   .000000   .000000
     4 x       -.005422  -.035177   .000000   .033963  -.011692   .212835
     4 y        .004586  -.035177   .000000   .035996   .001667   .212834
     4 z        .000000  -.000001  -.257370   .149629   .000000   .000000
     5 x        .017709  -.012243   .100974  -.113600  -.171455  -.000179
     5 y       -.018000  -.012242   .100974  -.132283   .171464  -.000177
     5 z       -.003424  -.288063   .169942  -.165681   .000882  -.037462
     6 x        .017709  -.012243  -.100974   .136646  -.171455  -.000179
     6 y       -.018000  -.012244  -.100974   .120579   .171464  -.000177
     6 z        .003424   .288065   .169942  -.226997  -.000882   .037463
     7 x        .012030  -.017856  -.100974   .081120  -.003861   .171507
     7 y       -.012455  -.017854   .100974  -.026160  -.004217   .171506
     7 z       -.288044   .000002   .169942  -.193423  -.037452   .000000
     8 x        .012030  -.017855   .100974  -.019860  -.003861   .171507
     8 y       -.012455  -.017856  -.100974   .074841  -.004217   .171507
     8 z        .288043   .000000   .169942  -.009318   .037452   .000000
     9 x       -.038922  -.137456   .133488  -.160324   .188312  -.025232
     9 y        .035654  -.137457   .133488  -.127265  -.187125  -.025235
     9 z        .003532   .297158  -.242066   .255199  -.001212   .051454
    10 x       -.038922  -.137460  -.133489   .159856   .188312  -.025232
    10 y        .035654  -.137457  -.133488   .187991  -.187125  -.025235
    10 z       -.003532  -.297161  -.242066   .314741   .001212  -.051454
    11 x        .137891   .037289  -.133488   .093204   .029649  -.187771
    11 y       -.137005   .037291   .133488  -.145208  -.020804  -.187771
    11 z        .297139  -.000002  -.242066   .236781   .051440   .000001
    12 x        .137891   .037292   .133488  -.058030   .029649  -.187771
    12 y       -.137005   .037291  -.133488   .003066  -.020804  -.187770
    12 z       -.297139   .000000  -.242066   .041746  -.051440   .000000
    13 x        .024918   .355495  -.186172   .187042  -.067673   .056415
    13 y       -.016467   .355491  -.186172   .184020   .065015   .056416
    13 z       -.001222  -.102815   .058165  -.058116   .000343  -.014573
    14 x        .024918   .355496   .186172  -.259160  -.067672   .056416
    14 y       -.016467   .355495   .186172  -.262202   .065015   .056417
    14 z        .001222   .102816   .058165  -.079927  -.000343   .014573
    15 x       -.355715  -.020692   .186172  -.200377  -.057963   .066362
    15 y        .355224  -.020697  -.186172   .224318   .054838   .066363
    15 z       -.102808   .000001   .058165  -.065694  -.014569   .000000
    16 x       -.355715  -.020694  -.186172   .004347  -.057963   .066363
    16 y        .355224  -.020694   .186172   .016635   .054838   .066362
    16 z        .102808   .000000   .058165   .000000   .014569   .000000


 Frequency    1078.4231           1092.1714           1419.4311
 IR Intensity     .1095               .0000               .0082

                Real    Imaginary   Real    Imaginary   Real    Imaginary

     1 x        .006575  -.019570   .000000  -.303428   .001711   .536021
     1 y        .032554  -.019570   .000000   .307328   .002270   .536019
     1 z        .000000   .000000  -.033456   .049774   .000000   .000000
     2 x        .550947  -.551561   .000000  -.268584   .536015  -.000280
     2 y        .551867  -.551559   .000000  -.221986  -.536018  -.000279
     2 z        .000000   .000000   .033456   .028625   .000000   .000000
     3 x       -.001667   .006681   .000000   .123225  -.000237  -.069935
     3 y       -.011692   .006681   .000000  -.112554  -.000282  -.069935
     3 z        .000000   .000000   .242812  -.220764   .000000   .000000
     4 x       -.212619   .212835   .000000   .094740  -.069934   .000023
     4 y       -.212933   .212834   .000000   .092209   .069935   .000022
     4 z        .000000   .000000  -.242812  -.080436   .000000   .000000
     5 x        .004217  -.000178  -.103411   .197563  -.003591  -.144289
     5 y       -.003861  -.000178  -.103410  -.020563   .002519  -.144289
     5 z        .037452  -.037463  -.149330   .131589  -.000017  -.004631
     6 x        .004217  -.000178   .103411   .016824  -.003591  -.144289
     6 y       -.003861  -.000178   .103410  -.196734   .002519  -.144289
     6 z       -.037452   .037463  -.149330   .162838   .000017   .004631
     7 x       -.171464   .171507  -.103410   .057904  -.144299  -.003055
     7 y       -.171455   .171507   .103411   .108416   .144277  -.003055
     7 z        .000882   .000000   .149330   .099444   .004631   .000000
     8 x       -.171464   .171507   .103410   .115894  -.144299  -.003055
     8 y       -.171455   .171507  -.103411   .054417   .144277  -.003055
     8 z       -.000882   .000000   .149330   .020994  -.004631   .000000
     9 x        .020804  -.025233  -.127087  -.006690   .006659  -.156950
     9 y        .029649  -.025233  -.127087   .222666  -.007824  -.156950
     9 z       -.051440   .051454   .228225  -.190515   .001141   .307435
    10 x        .020804  -.025233   .127087  -.249950   .006659  -.156950
    10 y        .029649  -.025233   .127087  -.027428  -.007824  -.156949
    10 z        .051440  -.051454   .228225  -.253046  -.001141  -.307435
    11 x        .187125  -.187771  -.127087  -.174756  -.156922   .007242
    11 y        .188312  -.187770   .127087  -.035139   .156976   .007241
    11 z       -.001212   .000000  -.228225  -.131758  -.307432   .000000
    12 x        .187125  -.187771   .127087  -.081646  -.156921   .007242
    12 y        .188312  -.187770  -.127087  -.134313   .156976   .007242
    12 z        .001212   .000000  -.228225  -.040728   .307433   .000000
    13 x       -.054838   .056416   .210358  -.141919   .017403  -.103888
    13 y       -.057963   .056416   .210357  -.157269  -.018174  -.103888
    13 z        .014569  -.014573  -.058184   .042416   .000010   .002601
    14 x       -.054838   .056416  -.210358   .191873   .017403  -.103888
    14 y       -.057963   .056416  -.210357   .173232  -.018174  -.103888
    14 z       -.014569   .014573  -.058184   .055519  -.000010  -.002601
    15 x       -.065015   .066362   .210357   .109517  -.103821   .017789
    15 y       -.067672   .066362  -.210358  -.074551   .103953   .017788
    15 z        .000343   .000000   .058184   .029638  -.002601   .000000
    16 x       -.065015   .066362  -.210357   .020159  -.103821   .017789
    16 y       -.067672   .066362   .210358   .005650   .103953   .017788
    16 z       -.000343   .000000   .058184   .000000   .002601   .000000


 Frequency    1419.4311           1582.2436           1633.6584
 IR Intensity     .0082               .0000               .1332

                Real    Imaginary   Real    Imaginary   Real    Imaginary

     1 x       -.536018  -.536021   .000000  -.007267   .000000  -.002689
     1 y       -.536015  -.536019   .000000  -.024583   .000000  -.002771
     1 z        .000000   .000000  -.228036   .152280   .282336  -.264353
     2 x        .002270   .000279   .000000   .142578   .000000  -.051727
     2 y       -.001711   .000279   .000000  -.135896   .000000   .054240
     2 z        .000000   .000000   .228036  -.228551   .282336  -.289354
     3 x        .069935   .069935   .000000  -.003560   .000000   .000253
     3 y        .069934   .069935   .000000   .002325   .000000   .001957
     3 z        .000000   .000000   .151421  -.103518  -.152860   .143638
     4 x       -.000282  -.000022   .000000  -.014889   .000000   .003537
     4 y        .000237  -.000022   .000000   .011513   .000000  -.004925
     4 z        .000000   .000000  -.151421   .149251  -.152860   .156479
     5 x        .144277   .144289   .097387  -.033342  -.086230   .080045
     5 y        .144299   .144289   .097387  -.008640  -.086229   .084741
     5 z        .004631   .004631  -.048993   .015046   .021919  -.020333
     6 x        .144277   .144289  -.097387   .039626   .086230  -.084836
     6 y        .144299   .144289  -.097386   .063903   .086229  -.080157
     6 z       -.004631  -.004631  -.048993   .026438   .021919  -.021739
     7 x        .002519   .003055   .097387  -.214737   .086229  -.047250
     7 y        .003591   .003055  -.097387   .207151  -.086230   .045155
     7 z        .000017   .000000   .048993  -.109159   .021919   .008390
     8 x        .002519   .003055  -.097386   .027641  -.086229   .126000
     8 y        .003591   .003055   .097387  -.037161   .086230  -.128157
     8 z       -.000017   .000000   .048993  -.005883   .021919  -.051939
     9 x        .156976   .156950  -.074122   .048034   .055898  -.047952
     9 y        .156922   .156950  -.074122   .021275   .055898  -.054898
     9 z       -.307433  -.307435   .284874  -.093702  -.256510   .239643
    10 x        .156976   .156950   .074122  -.023363  -.055898   .057368
    10 y        .156921   .156949   .074121  -.044233  -.055897   .050359
    10 z        .307433   .307435   .284874  -.145433  -.256510   .250386
    11 x       -.007824  -.007242  -.074122   .116120  -.055898   .043002
    11 y       -.006659  -.007242   .074122  -.083224   .055898  -.041412
    11 z       -.001141   .000000  -.284874   .455121  -.256510   .184522
    12 x       -.007824  -.007242   .074121  -.055453   .055897  -.070464
    12 y       -.006659  -.007242  -.074122   .091978  -.055898   .072584
    12 z        .001141   .000000  -.284875   .238092  -.256511   .331059
    13 x        .103953   .103888  -.222470   .068364   .235587  -.209978
    13 y        .103821   .103888  -.222469   .013249   .235586  -.223686
    13 z       -.002601  -.002601  -.006335  -.005419  -.007719   .007575
    14 x        .103953   .103888   .222470  -.066940  -.235587   .229938
    14 y        .103821   .103888   .222469  -.121503  -.235586   .216024
    14 z        .002601   .002601  -.006335   .002221  -.007719   .007198
    15 x       -.018174  -.017789  -.222469   .389700  -.235586   .190528
    15 y       -.017403  -.017788   .222470  -.388060   .235587  -.186982
    15 z       -.000010   .000000   .006335  -.024086  -.007719   .015550
    16 x       -.018174  -.017789   .222469  -.201096   .235586  -.293598
    16 y       -.017403  -.017788  -.222470   .205693  -.235587   .296610
    16 z        .000010   .000000   .006335   .000000  -.007719   .000000


 Frequency    1663.3173           1663.3173           1752.1483
 IR Intensity     .3140               .3140               .0000

                Real    Imaginary   Real    Imaginary   Real    Imaginary

     1 x       -.053683  -.259653   .254046   .259653   .000000  -.002204
     1 y       -.055781  -.259653   .253592   .259653   .000000  -.001434
     1 z        .000000   .000000   .000000   .000000  -.559276  -.777320
     2 x       -.253592   .001073  -.055781  -.001073   .000000   .005108
     2 y        .254046   .001073   .053683  -.001073   .000000  -.005201
     2 z        .000000   .000000   .000000   .000000   .559276  -.000527
     3 x       -.000427   .023468  -.024099  -.023468   .000000   .000560
     3 y        .010320   .023468  -.021782  -.023468   .000000  -.000233
     3 z        .000000   .000000   .000000   .000000   .267219   .376556
     4 x        .021782  -.005497   .010320   .005497   .000000  -.000279
     4 y       -.024099  -.005497   .000427   .005497   .000000   .000326
     4 z        .000000   .000000   .000000   .000000  -.267219   .005580
     5 x        .036866   .207256  -.204070  -.207256  -.059535  -.084343
     5 y        .050509   .207255  -.201127  -.207255  -.059535  -.086059
     5 z       -.031807  -.150893   .147502   .150893   .139397   .195558
     6 x        .036866   .207256  -.204070  -.207256   .059535   .089261
     6 y        .050509   .207255  -.201127  -.207255   .059535   .087112
     6 z        .031807   .150893  -.147502  -.150893   .139397   .198231
     7 x        .201127  -.006978   .050509   .006978  -.059535  -.002125
     7 y       -.204070  -.006978  -.036866   .006978   .059535   .001384
     7 z        .147502   .000000   .031807   .000000  -.139397  -.001856
     8 x        .201127  -.006978   .050509   .006978   .059535  -.009253
     8 y       -.204070  -.006978  -.036866   .006978  -.059535   .008954
     8 z       -.147503   .000000  -.031807   .000000  -.139397   .007915
     9 x       -.013076  -.073192   .072054   .073192   .049575   .066109
     9 y       -.017781  -.073192   .071040   .073192   .049575   .067945
     9 z        .079521   .377251  -.368775  -.377251  -.145774  -.215543
    10 x       -.013076  -.073192   .072055   .073192  -.049575  -.069989
    10 y       -.017780  -.073192   .071040   .073191  -.049575  -.067832
    10 z       -.079521  -.377251   .368775   .377251  -.145774  -.222078
    11 x       -.071040   .002406  -.017781  -.002406   .049575   .003964
    11 y        .072055   .002406   .013076  -.002406  -.049575  -.004222
    11 z       -.368775   .000000  -.079521   .000000   .145774  -.001756
    12 x       -.071040   .002407  -.017780  -.002406  -.049575   .001475
    12 y        .072054   .002406   .013076  -.002406   .049575  -.002687
    12 z        .368775   .000000   .079521   .000000   .145774  -.028675
    13 x       -.037199  -.289411   .288042   .289412   .036814   .065232
    13 y       -.084811  -.289410   .277775   .289411   .036814   .070218
    13 z       -.008095  -.038403   .037540   .038403   .050060   .067880
    14 x       -.037199  -.289412   .288042   .289412  -.036814  -.075506
    14 y       -.084811  -.289411   .277775   .289411  -.036814  -.070148
    14 z        .008095   .038403  -.037540  -.038403   .050060   .069132
    15 x       -.277775   .024353  -.084811  -.024353   .036814  -.008662
    15 y        .288042   .024353   .037199  -.024353  -.036814   .009816
    15 z        .037540   .000000   .008095   .000000  -.050060  -.002779
    16 x       -.277775   .024353  -.084811  -.024353  -.036814   .028457
    16 y        .288042   .024353   .037199  -.024353   .036814  -.026821
    16 z       -.037540   .000000  -.008095   .000000  -.050060   .000000


 Frequency    1757.8645           3196.3260           3202.6686
 IR Intensity     .2522               .0000               .1870

                Real    Imaginary   Real    Imaginary   Real    Imaginary

     1 x        .000000  -.001400   .000000  -.006948   .001564  -.016137
     1 y        .000000  -.000900   .000000  -.006643  -.001584  -.016137
     1 z       -.532817  -.763136  -.007739  -.011541   .000000   .000000
     2 x        .000000   .012939   .000000   .000338  -.016136   .001575
     2 y        .000000  -.010720   .000000   .000858   .016138   .001574
     2 z       -.532818  -.016159   .007739  -.002073   .000000   .000000
     3 x        .000000   .001271   .000000   .000798  -.003609   .001752
     3 y        .000000   .000312   .000000   .000664   .003611   .001752
     3 z        .261371   .367589  -.000702  -.000254   .000000   .000000
     4 x        .000000  -.002452   .000000  -.001563   .001750  -.003610
     4 y        .000000   .000816   .000000  -.001738  -.001754  -.003610
     4 z        .261371   .014862   .000702   .001151   .000000   .000000
     5 x       -.065080  -.090947  -.063767  -.041678  -.000998   .094296
     5 y       -.065080  -.089775  -.063766  -.041386   .001113   .094295
     5 z        .141216   .202387   .053210   .034700  -.000045  -.072732
     6 x        .065080   .088665   .063767   .118628  -.001001   .094291
     6 y        .065080   .089407   .063766   .118671   .001110   .094290
     6 z        .141216   .198699   .053210   .110853   .000042   .072728
     7 x        .065080  -.005635  -.063766  -.001844   .094291  -.001060
     7 y       -.065080   .003676   .063767   .001188  -.094293  -.001050
     7 z        .141216  -.001396  -.053210   .003591   .072729  -.000004
     8 x       -.065080  -.016956   .063767   .003564   .094293  -.001056
     8 y        .065080   .015410  -.063767  -.004156  -.094295  -.001055
     8 z        .141216   .013168  -.053210   .004013  -.072731   .000000
     9 x        .049316   .077524   .224719   .146054  -.000092  -.323970
     9 y        .049316   .071165   .224718   .145930  -.000305  -.323969
     9 z       -.172206  -.238068   .150664   .098191  -.000133  -.216505
    10 x       -.049316  -.068292  -.224719  -.411656  -.000081  -.323954
    10 y       -.049316  -.073770  -.224718  -.411835  -.000294  -.323953
    10 z       -.172206  -.225930   .150664   .273465   .000125   .216494
    11 x       -.049316   .004968   .224717   .008664  -.323957   .000124
    11 y        .049316  -.002482  -.224718  -.009236   .323958   .000089
    11 z       -.172206  -.000499  -.150664  -.007679   .216497  -.000012
    12 x        .049316   .003413  -.224720  -.016816  -.323965   .000108
    12 y       -.049316  -.001744   .224720   .016202   .323966   .000105
    12 z       -.172206  -.039546  -.150665  -.011613  -.216502   .000001
    13 x        .066927   .084489  -.005483  -.001642   .001689   .003718
    13 y        .066926   .083501  -.005483  -.000942  -.001685   .003717
    13 z        .044780   .068009  -.339484  -.221757   .000288   .468882
    14 x       -.066927  -.077594   .005483   .005425   .001689   .003717
    14 y       -.066926  -.078514   .005483   .006138  -.001685   .003718
    14 z        .044780   .066929  -.339484  -.662022  -.000270  -.468859
    15 x       -.066926   .001065  -.005483  -.002500   .003718   .001687
    15 y        .066927   .001319   .005483   .004650  -.003716   .001687
    15 z        .044780  -.003938   .339483  -.002344  -.468863   .000026
    16 x        .066926   .035884   .005483   .004546   .003719   .001687
    16 y       -.066927  -.033700  -.005483  -.002437  -.003717   .001687
    16 z        .044780   .000000   .339486   .000000   .468877   .000000


 Frequency    3202.6686           3203.6359           3293.5292
 IR Intensity     .1870               .1623               .0000

                Real    Imaginary   Real    Imaginary   Real    Imaginary

     1 x       -.016138  -.016137   .000000   .007597   .000000   .000430
     1 y       -.016136  -.016137   .000000   .009597   .000000   .000013
     1 z        .000000   .000000  -.010518  -.000277  -.013696   .016802
     2 x        .001584   .001574   .000000   .008972   .000000   .000341
     2 y        .001564   .001574   .000000  -.009489   .000000  -.001379
     2 z        .000000   .000000  -.010518   .006038   .013696  -.007913
     3 x        .001754   .001752   .000000   .001407   .000000   .000370
     3 y        .001750   .001752   .000000  -.002599   .000000  -.000273
     3 z        .000000   .000000  -.000100   .000210  -.000762   .001423
     4 x       -.003611  -.003610   .000000   .000336   .000000   .000161
     4 y       -.003609  -.003610   .000000   .002844   .000000   .000244
     4 z        .000000   .000000  -.000100  -.000226   .000762   .000248
     5 x        .094294   .094293  -.062341  -.073492   .061435  -.068022
     5 y        .094292   .094293  -.062341  -.073738   .061435  -.067461
     5 z       -.072730  -.072730   .061218   .048452   .139732  -.174629
     6 x        .094294   .094293   .062341  -.031113  -.061435   .064445
     6 y        .094292   .094293   .062341  -.031250  -.061435   .065295
     6 z        .072730   .072730   .061219  -.041277   .139732  -.182508
     7 x       -.001112  -.001055   .062343  -.104145   .061435  -.060284
     7 y       -.000999  -.001055  -.062343   .103648  -.061435   .061694
     7 z       -.000043   .000000   .061220  -.082548  -.139731   .125077
     8 x       -.001111  -.001055  -.062339   .006195  -.061435   .027960
     8 y       -.000999  -.001055   .062339  -.006680   .061435  -.026642
     8 z        .000043   .000000   .061217   .008269  -.139732   .020603
     9 x       -.323962  -.323962   .215154   .258414  -.205180   .228260
     9 y       -.323961  -.323961   .215153   .255101  -.205179   .226603
     9 z       -.216500  -.216500   .144022   .174199  -.151816   .170207
    10 x       -.323962  -.323962  -.215154   .106319   .205180  -.214622
    10 y       -.323961  -.323961  -.215154   .103012   .205179  -.216015
    10 z        .216500   .216500   .144022  -.065273  -.151816   .160633
    11 x        .000300   .000107  -.215160   .359150  -.205179   .202300
    11 y       -.000087   .000106   .215161  -.357215   .205179  -.204398
    11 z       -.000129   .000000   .144027  -.241974   .151816  -.147707
    12 x        .000299   .000106   .215146  -.027441   .205180  -.093083
    12 y       -.000086   .000106  -.215146   .029244  -.205181   .091178
    12 z        .000129   .000000   .144017  -.023976   .151816  -.067199
    13 x        .003717   .003718  -.000968  -.003825  -.009116   .009859
    13 y        .003718   .003717  -.000968  -.003445  -.009115   .008499
    13 z        .468870   .468870  -.353692  -.349418  -.339736   .442720
    14 x        .003716   .003717   .000968  -.001801   .009115  -.010225
    14 y        .003719   .003718   .000968  -.001303   .009116  -.011206
    14 z       -.468870  -.468870  -.353693   .201003  -.339736   .480257
    15 x        .001685   .001687   .000968  -.001959  -.009115   .010052
    15 y        .001689   .001687  -.000968   .003343   .009115  -.011073
    15 z        .000280   .000001  -.353702   .534784   .339736  -.298337
    16 x        .001685   .001687  -.000968   .001134   .009116  -.002842
    16 y        .001689   .001687   .000968  -.000104  -.009116   .001305
    16 z       -.000279   .000000  -.353681   .000000   .339738   .000000


 Frequency    3303.6310           3303.6310           3321.2345
 IR Intensity     .1605               .1605               .8149

                Real    Imaginary   Real    Imaginary   Real    Imaginary

     1 x       -.000980   .005874  -.005870   .005874   .000000  -.001774
     1 y        .000940   .005874  -.005877   .005874   .000000   .000971
     1 z        .000000   .000000   .000000   .000000   .009408  -.014874
     2 x        .005877  -.000960   .000940  -.000960   .000000   .007053
     2 y       -.005870  -.000960   .000980  -.000960   .000000  -.003996
     2 z        .000000   .000000   .000000   .000000   .009408  -.000702
     3 x        .003564  -.000050   .000038  -.000050   .000000   .003333
     3 y       -.003564  -.000050   .000062  -.000050   .000000  -.000908
     3 z        .000000   .000000   .000000   .000000   .002325  -.001892
     4 x       -.000062   .003564  -.003564   .003564   .000000  -.002403
     4 y        .000038   .003564  -.003564   .003564   .000000   .000987
     4 z        .000000   .000000   .000000   .000000   .002325  -.001926
     5 x        .000837  -.084619   .084616  -.084619  -.065710   .058325
     5 y       -.000271  -.084618   .084620  -.084618  -.065709   .060331
     5 z        .000646  -.193044   .193043  -.193044  -.132912   .134135
     6 x        .000837  -.084619   .084616  -.084619   .065710  -.098870
     6 y       -.000270  -.084619   .084620  -.084618   .065710  -.096414
     6 z       -.000647   .193044  -.193043   .193044  -.132912   .199484
     7 x       -.084620   .000556  -.000270   .000554   .065710  -.072100
     7 y        .084616   .000551  -.000837   .000554  -.065710   .067460
     7 z        .193043  -.000005  -.000647   .000000  -.132912   .111273
     8 x       -.084620   .000554  -.000270   .000554  -.065709  -.017203
     8 y        .084616   .000554  -.000837   .000554   .065710   .012316
     8 z       -.193043   .000000   .000647   .000000  -.132912  -.014066
     9 x       -.002997   .285136  -.285128   .285136   .218087  -.185526
     9 y        .001089   .285135  -.285140   .285135   .218086  -.197724
     9 z       -.000688   .205454  -.205453   .205454   .148452  -.136985
    10 x       -.002999   .285137  -.285128   .285136  -.218087   .336802
    10 y        .001087   .285136  -.285141   .285135  -.218087   .324969
    10 z        .000689  -.205454   .205453  -.205454   .148452  -.233449
    11 x        .285141  -.002050   .001088  -.002043  -.218087   .231073
    11 y       -.285128  -.002035   .002998  -.002043   .218087  -.225343
    11 z       -.205453   .000005   .000688   .000000   .148453  -.149710
    12 x        .285140  -.002044   .001088  -.002043   .218086   .049180
    12 y       -.285128  -.002042   .002998  -.002043  -.218087  -.043680
    12 z        .205452  -.000001  -.000688   .000000   .148452   .040645
    13 x       -.001509   .015990  -.015985   .015990   .014100  -.006081
    13 y        .001402   .015989  -.015994   .015989   .014100  -.009696
    13 z       -.001650   .492977  -.492973   .492975   .325719  -.324781
    14 x       -.001509   .015989  -.015984   .015989  -.014100   .013523
    14 y        .001402   .015990  -.015994   .015990  -.014100   .010422
    14 z        .001652  -.492974   .492973  -.492975   .325719  -.466952
    15 x        .015994  -.001456   .001402  -.001456  -.014100   .029191
    15 y       -.015984  -.001455   .001509  -.001456   .014100  -.018270
    15 z       -.492973   .000014   .001651   .000000   .325719  -.263495
    16 x        .015994  -.001456   .001402  -.001456   .014100   .003349
    16 y       -.015985  -.001456   .001509  -.001456  -.014100   .006904
    16 z        .492972   .000000  -.001651   .000000   .325718   .000000




--------------------------------------------------------------------------------
  Phonon properties (per mole of unit cells): 
--------------------------------------------------------------------------------
  Temperature                  =       .000000 K
  Zero point energy            =      3.474974 eV
--------------------------------------------------------------------------------

  Phonon density of states : 

--------------------------------------------------------------------------------
 Frequency     Density of States                                                
--------------------------------------------------------------------------------
     .00000 |******************************                                 .064
   52.00000 |                                                               .000
  104.00000 |************************************************************   .128
  156.00000 |                                                               .000
  208.00000 |********************                                           .043
  260.00000 |                                                               .000
  312.00000 |                                                               .000
  364.00000 |                                                               .000
  416.00000 |                                                               .000
  468.00000 |********************                                           .043
  520.00000 |********************                                           .043
  572.00000 |********************                                           .043
  624.00000 |                                                               .000
  676.00000 |********************                                           .043
  728.00000 |******************************                                 .064
  780.00000 |********************                                           .043
  832.00000 |                                                               .000
  884.00000 |                                                               .000
  936.00000 |**********                                                     .021
  988.00000 |                                                               .000
 1040.00000 |**************************************************             .106
 1092.00000 |**********                                                     .021
 1144.00000 |                                                               .000
 1196.00000 |                                                               .000
 1248.00000 |                                                               .000
 1300.00000 |                                                               .000
 1352.00000 |                                                               .000
 1404.00000 |********************                                           .043
 1456.00000 |                                                               .000
 1508.00000 |                                                               .000
 1560.00000 |**********                                                     .021
 1612.00000 |******************************                                 .064
 1664.00000 |                                                               .000
 1716.00000 |********************                                           .043
 1768.00000 |                                                               .000
 1820.00000 |                                                               .000
 1872.00000 |                                                               .000
 1924.00000 |                                                               .000
 1976.00000 |                                                               .000
 2028.00000 |                                                               .000
 2080.00000 |                                                               .000
 2132.00000 |                                                               .000
 2184.00000 |                                                               .000
 2236.00000 |                                                               .000
 2288.00000 |                                                               .000
 2340.00000 |                                                               .000
 2392.00000 |                                                               .000
 2444.00000 |                                                               .000
 2496.00000 |                                                               .000
 2548.00000 |                                                               .000
 2600.00000 |                                                               .000
 2652.00000 |                                                               .000
 2704.00000 |                                                               .000
 2756.00000 |                                                               .000
 2808.00000 |                                                               .000
 2860.00000 |                                                               .000
 2912.00000 |                                                               .000
 2964.00000 |                                                               .000
 3016.00000 |                                                               .000
 3068.00000 |                                                               .000
 3120.00000 |                                                               .000
 3172.00000 |****************************************                       .085
 3224.00000 |                                                               .000
 3276.00000 |****************************************                       .085
--------------------------------------------------------------------------------



  Time to end of optimisation =       6.6000 seconds


  Timing analysis for Gulp :

--------------------------------------------------------------------------------
      Task / Subroutine                                          Time (Seconds)
--------------------------------------------------------------------------------
      Calculation of reciprocal space energy and derivatives       .7500
      Calculation of real space energy and derivatives            4.2700
      Calculation of three-body energy and derivatives             .2600
      Calculation of four-body energy and derivatives              .1100
      Calculation of properties                                    .0400
      Calculation of phonons                                      1.2500
      Calculation of hessian                                       .0100
      Matrix inversion                                             .0200
      Matrix diagonalisation                                       .1500
      Disk read/write operations to scratch files                  .0400
--------------------------------------------------------------------------------
      Total CPU time                                              6.6200
--------------------------------------------------------------------------------




